
                                 *****************
                                 * O   R   C   A *
                                 *****************

                                            #,                                       
                                            ###                                      
                                            ####                                     
                                            #####                                    
                                            ######                                   
                                           ########,                                 
                                     ,,################,,,,,                         
                               ,,#################################,,                 
                          ,,##########################################,,             
                       ,#########################################, ''#####,          
                    ,#############################################,,   '####,        
                  ,##################################################,,,,####,       
                ,###########''''           ''''###############################       
              ,#####''   ,,,,##########,,,,          '''####'''          '####       
            ,##' ,,,,###########################,,,                        '##       
           ' ,,###''''                  '''############,,,                           
         ,,##''                                '''############,,,,        ,,,,,,###''
      ,#''                                            '''#######################'''  
     '                                                          ''''####''''         
             ,#######,   #######,   ,#######,      ##                                
            ,#'     '#,  ##    ##  ,#'     '#,    #''#        ######   ,####,        
            ##       ##  ##   ,#'  ##            #'  '#       #        #'  '#        
            ##       ##  #######   ##           ,######,      #####,   #    #        
            '#,     ,#'  ##    ##  '#,     ,#' ,#      #,         ##   #,  ,#        
             '#######'   ##     ##  '#######'  #'      '#     #####' # '####'        



                  #######################################################
                  #                        -***-                        #
                  #          Department of theory and spectroscopy      #
                  #    Directorship and core code : Frank Neese         #
                  #        Max Planck Institute fuer Kohlenforschung    #
                  #                Kaiser Wilhelm Platz 1               #
                  #                 D-45470 Muelheim/Ruhr               #
                  #                      Germany                        #
                  #                                                     #
                  #                  All rights reserved                #
                  #                        -***-                        #
                  #######################################################


                         Program Version 5.0.4 -  RELEASE  -


 With contributions from (in alphabetic order):
   Daniel Aravena         : Magnetic Suceptibility
   Michael Atanasov       : Ab Initio Ligand Field Theory (pilot matlab implementation)
   Alexander A. Auer      : GIAO ZORA, VPT2 properties, NMR spectrum
   Ute Becker             : Parallelization
   Giovanni Bistoni       : ED, misc. LED, open-shell LED, HFLD
   Martin Brehm           : Molecular dynamics
   Dmytro Bykov           : SCF Hessian
   Vijay G. Chilkuri      : MRCI spin determinant printing, contributions to CSF-ICE
   Dipayan Datta          : RHF DLPNO-CCSD density
   Achintya Kumar Dutta   : EOM-CC, STEOM-CC
   Dmitry Ganyushin       : Spin-Orbit,Spin-Spin,Magnetic field MRCI
   Miquel Garcia          : C-PCM and meta-GGA Hessian, CC/C-PCM, Gaussian charge scheme
   Yang Guo               : DLPNO-NEVPT2, F12-NEVPT2, CIM, IAO-localization
   Andreas Hansen         : Spin unrestricted coupled pair/coupled cluster methods
   Benjamin Helmich-Paris : MC-RPA, TRAH-SCF, COSX integrals
   Lee Huntington         : MR-EOM, pCC
   Robert Izsak           : Overlap fitted RIJCOSX, COSX-SCS-MP3, EOM
   Marcus Kettner         : VPT2
   Christian Kollmar      : KDIIS, OOCD, Brueckner-CCSD(T), CCSD density, CASPT2, CASPT2-K
   Simone Kossmann        : Meta GGA functionals, TD-DFT gradient, OOMP2, MP2 Hessian
   Martin Krupicka        : Initial AUTO-CI
   Lucas Lang             : DCDCAS
   Marvin Lechner         : AUTO-CI (C++ implementation), FIC-MRCC
   Dagmar Lenk            : GEPOL surface, SMD
   Dimitrios Liakos       : Extrapolation schemes; Compound Job, initial MDCI parallelization
   Dimitrios Manganas     : Further ROCIS development; embedding schemes
   Dimitrios Pantazis     : SARC Basis sets
   Anastasios Papadopoulos: AUTO-CI, single reference methods and gradients
   Taras Petrenko         : DFT Hessian,TD-DFT gradient, ASA, ECA, R-Raman, ABS, FL, XAS/XES, NRVS
   Peter Pinski           : DLPNO-MP2, DLPNO-MP2 Gradient
   Christoph Reimann      : Effective Core Potentials
   Marius Retegan         : Local ZFS, SOC
   Christoph Riplinger    : Optimizer, TS searches, QM/MM, DLPNO-CCSD(T), (RO)-DLPNO pert. Triples
   Tobias Risthaus        : Range-separated hybrids, TD-DFT gradient, RPA, STAB
   Michael Roemelt        : Original ROCIS implementation
   Masaaki Saitow         : Open-shell DLPNO-CCSD energy and density
   Barbara Sandhoefer     : DKH picture change effects
   Avijit Sen             : IP-ROCIS
   Kantharuban Sivalingam : CASSCF convergence, NEVPT2, FIC-MRCI
   Bernardo de Souza      : ESD, SOC TD-DFT
   Georgi Stoychev        : AutoAux, RI-MP2 NMR, DLPNO-MP2 response
   Willem Van den Heuvel  : Paramagnetic NMR
   Boris Wezisla          : Elementary symmetry handling
   Frank Wennmohs         : Technical directorship


 We gratefully acknowledge several colleagues who have allowed us to
 interface, adapt or use parts of their codes:
   Stefan Grimme, W. Hujo, H. Kruse, P. Pracht,  : VdW corrections, initial TS optimization,
                  C. Bannwarth, S. Ehlert          DFT functionals, gCP, sTDA/sTD-DF
   Ed Valeev, F. Pavosevic, A. Kumar             : LibInt (2-el integral package), F12 methods
   Garnet Chan, S. Sharma, J. Yang, R. Olivares  : DMRG
   Ulf Ekstrom                                   : XCFun DFT Library
   Mihaly Kallay                                 : mrcc  (arbitrary order and MRCC methods)
   Jiri Pittner, Ondrej Demel                    : Mk-CCSD
   Frank Weinhold                                : gennbo (NPA and NBO analysis)
   Christopher J. Cramer and Donald G. Truhlar   : smd solvation model
   Lars Goerigk                                  : TD-DFT with DH, B97 family of functionals
   V. Asgeirsson, H. Jonsson                     : NEB implementation
   FAccTs GmbH                                   : IRC, NEB, NEB-TS, DLPNO-Multilevel, CI-OPT
                                                   MM, QMMM, 2- and 3-layer-ONIOM, Crystal-QMMM,
                                                   LR-CPCM, SF, NACMEs, symmetry and pop. for TD-DFT,
                                                   nearIR, NL-DFT gradient (VV10), updates on ESD,
                                                   ML-optimized integration grids
   S Lehtola, MJT Oliveira, MAL Marques          : LibXC Library
   Liviu Ungur et al                             : ANISO software


 Your calculation uses the libint2 library for the computation of 2-el integrals
 For citations please refer to: http://libint.valeyev.net

 Your ORCA version has been built with support for libXC version: 5.1.0
 For citations please refer to: https://tddft.org/programs/libxc/

 This ORCA versions uses:
   CBLAS   interface :  Fast vector & matrix operations
   LAPACKE interface :  Fast linear algebra routines
   SCALAPACK package :  Parallel linear algebra routines
   Shared memory     :  Shared parallel matrices
   BLAS/LAPACK       :  OpenBLAS 0.3.15  USE64BITINT DYNAMIC_ARCH NO_AFFINITY Prescott SINGLE_THREADED
        Core in use  :  Prescott
   Copyright (c) 2011-2014, The OpenBLAS Project




***************************************
The coordinates will be read from file: /rds/user/pcpt3/hpc-work/CageConstruction/GreenawayCollab/Tetrahedrons_ORCA_DFT/Tetrahedron_l1_ald2_ORCA_DFT/Tetrahedron_l1_ald2_XTB.xyz
***************************************


Your calculation utilizes the geometrical counterpoise correction gCP
Please cite in your paper:
H.Kruse, S. Grimme J.Chem.Phys., 136, (2012), 154101 
   

Your calculation utilizes the atom-pairwise dispersion correction
based on tight binding partial charges (D4)
Cite in your paper:
E.Caldeweyher, C.Bannwarth, S.Grimme, J.Chem.Phys., (2017), 147, 034112.
E.Caldeweyher, S.Ehlert, A.Hansen, H.Neugebauer, S.Grimme, J.Chem.Phys., (2018), in progress.
   

================================================================================

----- Orbital basis set information -----
Your calculation utilizes the basis: def2-mTZVPP
   Stefan Grimme, Andreas Hansen, Sebastian Ehlert, and Jan-Michael Mewes 
   J. Chem. Phys. 154, 000000 (2021). DOI: 10.1063/5.0040021

----- AuxJ basis set information -----
Your calculation utilizes the auxiliary basis: def2/J
   F. Weigend, Phys. Chem. Chem. Phys. 8, 1057 (2006).

================================================================================
                                        WARNINGS
                       Please study these warnings very carefully!
================================================================================

Using LibXC functional ID 497 : Re-regularized SCAN exchange by Furness et al
[ 1]  J. W. Furness, A. D. Kaplan, J. Ning, J. P. Perdew, and J. Sun, J. Phys. Chem. Lett. 11, 8208 (2020)
[ 2]  J. W. Furness, A. D. Kaplan, J. Ning, J. P. Perdew, and J. Sun, J. Phys. Chem. Lett. 11, 9248 (2020)
Using LibXC functional ID 498 : Re-regularized SCAN correlation by Furness et al
[ 1]  J. W. Furness, A. D. Kaplan, J. Ning, J. P. Perdew, and J. Sun, J. Phys. Chem. Lett. 11, 8208 (2020)
[ 2]  J. W. Furness, A. D. Kaplan, J. Ning, J. P. Perdew, and J. Sun, J. Phys. Chem. Lett. 11, 9248 (2020)
Using LibXC functional ID 497 : Re-regularized SCAN exchange by Furness et al
[ 1]  J. W. Furness, A. D. Kaplan, J. Ning, J. P. Perdew, and J. Sun, J. Phys. Chem. Lett. 11, 8208 (2020)
[ 2]  J. W. Furness, A. D. Kaplan, J. Ning, J. P. Perdew, and J. Sun, J. Phys. Chem. Lett. 11, 9248 (2020)
Using LibXC functional ID 498 : Re-regularized SCAN correlation by Furness et al
[ 1]  J. W. Furness, A. D. Kaplan, J. Ning, J. P. Perdew, and J. Sun, J. Phys. Chem. Lett. 11, 8208 (2020)
[ 2]  J. W. Furness, A. D. Kaplan, J. Ning, J. P. Perdew, and J. Sun, J. Phys. Chem. Lett. 11, 9248 (2020)

INFO   : the flag for use of the SHARK integral package has been found!

================================================================================
                                       INPUT FILE
================================================================================
NAME = Tetrahedron_l1_ald2_ORCA_DFT.inp
|  1> ! r2SCAN-3c ENERGY TightSCF def2/J 
|  2> %PAL NPROCS 32 END 
|  3> %maxcore 5316 
|  4> 
|  5> *xyzfile 8 1 /rds/user/pcpt3/hpc-work/CageConstruction/GreenawayCollab/Tetrahedrons_ORCA_DFT/Tetrahedron_l1_ald2_ORCA_DFT/Tetrahedron_l1_ald2_XTB.xyz 
|  6> 
|  7>                          ****END OF INPUT****
================================================================================

                       ****************************
                       * Single Point Calculation *
                       ****************************

---------------------------------
CARTESIAN COORDINATES (ANGSTROEM)
---------------------------------
  C     -0.633000   -2.853800    1.846100
  C      0.694600   -2.923800    1.438800
  C      1.027800   -3.413700    0.171700
  C      0.008000   -3.838500   -0.675900
  C     -1.329900   -3.746700   -0.289000
  C     -1.645500   -3.257400    0.972800
  H      1.447200   -2.602900    2.138100
  H      0.275400   -4.248100   -1.635400
  H     -2.681800   -3.209600    1.264600
  C     -1.896700    0.835800    1.764700
  C     -2.721000   -0.248900    1.473200
  C     -3.343900   -0.359300    0.228800
  C     -3.168000    0.649100   -0.710100
  C     -2.340400    1.743300   -0.441800
  C     -1.712300    1.827600    0.796000
  H     -2.888800   -0.992500    2.234000
  H     -3.704900    0.572100   -1.639200
  H     -1.100200    2.691900    0.984800
  C      1.836600    0.298700    1.692500
  C      1.338800    1.530600    1.291700
  C      1.503300    1.971400   -0.022900
  C      2.190700    1.176900   -0.932700
  C      2.726000   -0.050500   -0.534900
  C      2.563900   -0.468700    0.781200
  H      0.847200    2.155000    2.018900
  H      2.336200    1.539900   -1.936700
  H      3.038500   -1.379900    1.103600
  C     -1.909200   -1.157800   -3.176500
  C     -0.912100   -2.126700   -3.224200
  C      0.432700   -1.764400   -3.317500
  C      0.779900   -0.418700   -3.370600
  C     -0.209100    0.566700   -3.334200
  C     -1.544400    0.189800   -3.255000
  H     -1.201100   -3.163900   -3.205900
  H      1.819500   -0.152000   -3.467500
  H     -2.286600    0.968300   -3.279800
  Zn    -0.260000   -0.640500    4.358400
  N     -0.958300   -2.372800    3.121000
  C     -1.837700   -3.017200    3.794300
  C     -2.425300   -2.541500    5.020700
  C     -3.293500   -3.381400    5.717000
  C     -3.891900   -2.916700    6.883600
  C     -3.664600   -1.604900    7.237700
  C     -2.813800   -0.790400    6.462700
  C     -2.714500    0.641200    6.841700
  N     -2.152000   -1.273200    5.411900
  H     -2.212900   -3.980100    3.443000
  H     -3.477500   -4.384800    5.366400
  H     -4.531000   -3.553700    7.475600
  H     -4.139300   -1.181900    8.110200
  H     -2.346100    1.248900    6.024000
  H     -3.697200    1.004200    7.139300
  H     -2.069200    0.764800    7.710500
  N      1.630000   -0.186200    2.993500
  C      2.662700   -0.457300    3.695100
  C      2.635300   -1.193900    4.934400
  C      3.839300   -1.378400    5.611200
  C      3.873800   -2.209100    6.726400
  C      2.707700   -2.855500    7.072200
  C      1.519900   -2.613700    6.355300
  C      0.309800   -3.352600    6.793000
  N      1.473100   -1.766600    5.326600
  H      3.661100   -0.187800    3.342900
  H      4.733900   -0.879600    5.271900
  H      4.784800   -2.357400    7.285900
  H      2.685100   -3.546200    7.901400
  H      0.502200   -4.424500    6.744800
  H      0.088900   -3.134600    7.837800
  H     -0.549500   -3.117900    6.179100
  N     -1.254200    0.892600    3.008400
  C     -1.059300    2.035700    3.551000
  C     -0.338800    2.247100    4.783900
  C     -0.143300    3.556300    5.219100
  C      0.498400    3.782700    6.432100
  C      0.845000    2.683800    7.187200
  C      0.580200    1.385200    6.712500
  C      0.834700    0.247200    7.630400
  N      0.058800    1.175400    5.505300
  H     -1.476700    2.944800    3.112800
  H     -0.499000    4.385000    4.626700
  H      0.680200    4.784300    6.790500
  H      1.294800    2.806100    8.161000
  H      0.270200   -0.630000    7.331800
  H      1.897800    0.009900    7.665300
  H      0.555700    0.527500    8.645500
  Zn    -4.259900   -3.163400   -1.793700
  N     -2.347800   -4.136500   -1.167900
  C     -2.224200   -5.255400   -1.778200
  C     -3.097200   -5.693700   -2.837600
  C     -2.947200   -6.986800   -3.336000
  C     -3.772900   -7.411200   -4.372200
  C     -4.639300   -6.488400   -4.915400
  C     -4.708500   -5.178500   -4.397900
  C     -5.582600   -4.213100   -5.110000
  N     -3.996600   -4.809300   -3.333900
  H     -1.415400   -5.942900   -1.524900
  H     -2.217200   -7.654300   -2.905600
  H     -3.719200   -8.420100   -4.751800
  H     -5.273100   -6.754400   -5.748000
  H     -5.311400   -3.187600   -4.889500
  H     -5.504700   -4.378500   -6.183400
  H     -6.627600   -4.379600   -4.851500
  N     -4.134600   -1.483500   -0.061900
  C     -5.100800   -1.740800    0.733300
  C     -5.852800   -2.972500    0.738300
  C     -6.897900   -3.093000    1.651800
  C     -7.542000   -4.317600    1.793700
  C     -7.067200   -5.375200    1.049600
  C     -6.019300   -5.183100    0.129300
  C     -5.567900   -6.372600   -0.634800
  N     -5.446800   -3.992600   -0.053200
  H     -5.373700   -1.036900    1.523100
  H     -7.203100   -2.242500    2.241300
  H     -8.369500   -4.438700    2.475900
  H     -7.499200   -6.359300    1.150900
  H     -5.208200   -7.133700    0.058100
  H     -6.405600   -6.823900   -1.166000
  H     -4.778900   -6.127700   -1.333300
  N     -3.242800   -1.554700   -3.023300
  C     -4.168000   -0.868500   -3.582200
  C     -5.580000   -1.115900   -3.419900
  C     -6.479100   -0.249400   -4.038300
  C     -7.844000   -0.496000   -3.936100
  C     -8.238300   -1.643500   -3.283900
  C     -7.278000   -2.506200   -2.721500
  C     -7.749600   -3.800900   -2.171000
  N     -5.979700   -2.210400   -2.734200
  H     -3.928400   -0.051200   -4.265800
  H     -6.118100    0.595600   -4.603800
  H     -8.568000    0.164900   -4.387700
  H     -9.283000   -1.909200   -3.223400
  H     -8.179400   -3.664400   -1.178800
  H     -8.551600   -4.192900   -2.795400
  H     -6.942000   -4.524100   -2.127400
  Zn     3.350400   -3.057000   -2.268200
  N      2.352200   -3.473800   -0.279000
  C      3.281900   -3.730900    0.563200
  C      4.690600   -3.740700    0.251300
  C      5.592600   -3.976700    1.287000
  C      6.952800   -4.042000    1.005100
  C      7.336900   -3.938100   -0.313600
  C      6.372700   -3.742500   -1.320800
  C      6.835000   -3.783100   -2.730600
  N      5.081600   -3.585800   -1.034000
  H      3.046300   -4.002300    1.594300
  H      5.236500   -4.120100    2.295300
  H      7.679000   -4.209100    1.785700
  H      8.375500   -4.034200   -0.592400
  H      7.312800   -2.843300   -3.006600
  H      7.597600   -4.552900   -2.843600
  H      6.014300   -3.989900   -3.408500
  N      1.421000   -2.756800   -3.352000
  C      1.249200   -3.747900   -4.144300
  C      2.078400   -4.927300   -4.152500
  C      1.861800   -5.889600   -5.136900
  C      2.637400   -7.044200   -5.136100
  C      3.524400   -7.215400   -4.095800
  C      3.663200   -6.224500   -3.103100
  C      4.553700   -6.532400   -1.956100
  N      2.998800   -5.070400   -3.170400
  H      0.424200   -3.753300   -4.859700
  H      1.117400   -5.729300   -5.901100
  H      2.530900   -7.789900   -5.909100
  H      4.120300   -8.113000   -4.024600
  H      4.334600   -5.907300   -1.098900
  H      4.432400   -7.577300   -1.674700
  H      5.599200   -6.413500   -2.238300
  N      3.426800   -0.834200   -1.466400
  C      4.414900   -0.289300   -2.065700
  C      5.077300   -0.850900   -3.218800
  C      6.180000   -0.177200   -3.741900
  C      6.740200   -0.619000   -4.934600
  C      6.120900   -1.669000   -5.581600
  C      5.010500   -2.304700   -5.001000
  C      4.358400   -3.410200   -5.754300
  N      4.530100   -1.934700   -3.811400
  H      4.777600    0.695500   -1.762500
  H      6.593400    0.673800   -3.223300
  H      7.611800   -0.140200   -5.354300
  H      6.488500   -2.013700   -6.536000
  H      3.276800   -3.320100   -5.704300
  H      4.665200   -3.387300   -6.796700
  H      4.648100   -4.381600   -5.355200
  Zn    -0.275700    3.889800   -2.113300
  N     -2.110300    2.731200   -1.408900
  C     -3.077300    3.069100   -2.177100
  C     -2.963400    3.960500   -3.305200
  C     -4.099800    4.175800   -4.083400
  C     -4.030600    5.042200   -5.168500
  C     -2.840000    5.701000   -5.382100
  C     -1.740900    5.478000   -4.530600
  C     -0.537800    6.323700   -4.731000
  N     -1.786800    4.582600   -3.545100
  H     -4.088100    2.694900   -2.000100
  H     -5.028200    3.685200   -3.835200
  H     -4.888000    5.220700   -5.799300
  H     -2.745600    6.416500   -6.185000
  H      0.084700    5.922200   -5.530600
  H     -0.836300    7.321200   -5.049700
  H      0.044600    6.399400   -3.819600
  N      0.969200    3.209800   -0.402300
  C      1.182800    4.213400    0.364200
  C      0.537300    5.493400    0.222000
  C      0.935300    6.535300    1.058200
  C      0.299900    7.767800    0.952900
  C     -0.759600    7.864300    0.077400
  C     -1.143300    6.758800   -0.708600
  C     -2.359700    6.913700   -1.545800
  N     -0.462600    5.612100   -0.682600
  H      1.872800    4.132400    1.206800
  H      1.739900    6.391600    1.762500
  H      0.609500    8.610400    1.552200
  H     -1.313200    8.786800   -0.013200
  H     -2.813400    5.956500   -1.773300
  H     -3.084900    7.533300   -1.021000
  H     -2.124300    7.436000   -2.472600
  N      0.152700    1.922900   -3.382600
  C      0.876300    2.301000   -4.365300
  C      1.533800    3.583100   -4.449500
  C      2.247000    3.882400   -5.609700
  C      3.002100    5.047700   -5.659000
  C      3.063100    5.818500   -4.515900
  C      2.320100    5.461200   -3.378200
  C      2.443300    6.310400   -2.162000
  N      1.526300    4.387200   -3.364200
  H      1.089500    1.621900   -5.194200
  H      2.206700    3.218000   -6.458800
  H      3.543000    5.326900   -6.550500
  H      3.676800    6.705800   -4.490000
  H      2.591900    5.692000   -1.280600
  H      3.286800    6.988600   -2.259100
  H      1.552400    6.919400   -2.015200

----------------------------
CARTESIAN COORDINATES (A.U.)
----------------------------
  NO LB      ZA    FRAG     MASS         X           Y           Z
   0 C     6.0000    0    12.011   -1.196197   -5.392900    3.488623
   1 C     6.0000    0    12.011    1.312604   -5.525181    2.718938
   2 C     6.0000    0    12.011    1.942261   -6.450958    0.324466
   3 C     6.0000    0    12.011    0.015118   -7.253714   -1.277266
   4 C     6.0000    0    12.011   -2.513147   -7.080237   -0.546131
   5 C     6.0000    0    12.011   -3.109544   -6.155594    1.838326
   6 H     1.0000    0     1.008    2.734812   -4.918768    4.040423
   7 H     1.0000    0     1.008    0.520431   -8.027746   -3.090458
   8 H     1.0000    0     1.008   -5.067868   -6.065265    2.389748
   9 C     6.0000    0    12.011   -3.584244    1.579433    3.334800
  10 C     6.0000    0    12.011   -5.141945   -0.470353    2.783945
  11 C     6.0000    0    12.011   -6.319055   -0.678979    0.432369
  12 C     6.0000    0    12.011   -5.986652    1.226621   -1.341895
  13 C     6.0000    0    12.011   -4.422715    3.294360   -0.834881
  14 C     6.0000    0    12.011   -3.235778    3.453663    1.504222
  15 H     1.0000    0     1.008   -5.459041   -1.875553    4.221648
  16 H     1.0000    0     1.008   -7.001246    1.081112   -3.097639
  17 H     1.0000    0     1.008   -2.079077    5.086954    1.861002
  18 C     6.0000    0    12.011    3.470671    0.564461    3.198361
  19 C     6.0000    0    12.011    2.529965    2.892415    2.440959
  20 C     6.0000    0    12.011    2.840825    3.725406   -0.043275
  21 C     6.0000    0    12.011    4.139823    2.224019   -1.762548
  22 C     6.0000    0    12.011    5.151393   -0.095431   -1.010815
  23 C     6.0000    0    12.011    4.845069   -0.885715    1.476254
  24 H     1.0000    0     1.008    1.600976    4.072360    3.815168
  25 H     1.0000    0     1.008    4.414778    2.909989   -3.659833
  26 H     1.0000    0     1.008    5.741933   -2.607633    2.085502
  27 C     6.0000    0    12.011   -3.607865   -2.187925   -6.002715
  28 C     6.0000    0    12.011   -1.723619   -4.018881   -6.092855
  29 C     6.0000    0    12.011    0.817684   -3.334233   -6.269166
  30 C     6.0000    0    12.011    1.473797   -0.791228   -6.369511
  31 C     6.0000    0    12.011   -0.395142    1.070908   -6.300725
  32 C     6.0000    0    12.011   -2.918493    0.358670   -6.151059
  33 H     1.0000    0     1.008   -2.269750   -5.978905   -6.058273
  34 H     1.0000    0     1.008    3.438357   -0.287238   -6.552625
  35 H     1.0000    0     1.008   -4.321048    1.829822   -6.197924
  36 Zn   30.0000    0    65.380   -0.491329   -1.210370    8.236182
  37 N     7.0000    0    14.007   -1.810925   -4.483942    5.897835
  38 C     6.0000    0    12.011   -3.472750   -5.701682    7.170188
  39 C     6.0000    0    12.011   -4.583153   -4.802739    9.487748
  40 C     6.0000    0    12.011   -6.223813   -6.389920   10.803564
  41 C     6.0000    0    12.011   -7.354625   -5.511764   13.008119
  42 C     6.0000    0    12.011   -6.925090   -3.032821   13.677271
  43 C     6.0000    0    12.011   -5.317311   -1.493640   12.212733
  44 C     6.0000    0    12.011   -5.129662    1.211692   12.928939
  45 N     7.0000    0    14.007   -4.066691   -2.405999   10.227009
  46 H     1.0000    0     1.008   -4.181775   -7.521299    6.506327
  47 H     1.0000    0     1.008   -6.571523   -8.286071   10.141026
  48 H     1.0000    0     1.008   -8.562349   -6.715520   14.126837
  49 H     1.0000    0     1.008   -7.822143   -2.233467   15.326057
  50 H     1.0000    0     1.008   -4.433486    2.360079   11.383710
  51 H     1.0000    0     1.008   -6.986695    1.897663   13.491322
  52 H     1.0000    0     1.008   -3.910221    1.445263   14.570733
  53 N     7.0000    0    14.007    3.080254   -0.351867    5.656895
  54 C     6.0000    0    12.011    5.031774   -0.864172    6.982727
  55 C     6.0000    0    12.011    4.979995   -2.256144    9.324665
  56 C     6.0000    0    12.011    7.255226   -2.604799   10.603631
  57 C     6.0000    0    12.011    7.320421   -4.174594   12.711054
  58 C     6.0000    0    12.011    5.116811   -5.396113   13.364521
  59 C     6.0000    0    12.011    2.872195   -4.939177   12.009776
  60 C     6.0000    0    12.011    0.585437   -6.335496   12.836910
  61 N     7.0000    0    14.007    2.783756   -3.338390   10.065815
  62 H     1.0000    0     1.008    6.918476   -0.354891    6.317165
  63 H     1.0000    0     1.008    8.945775   -1.662203    9.962447
  64 H     1.0000    0     1.008    9.041962   -4.454840   13.768356
  65 H     1.0000    0     1.008    5.074104   -6.701347   14.931482
  66 H     1.0000    0     1.008    0.949020   -8.361093   12.745825
  67 H     1.0000    0     1.008    0.167997   -5.923536   14.811295
  68 H     1.0000    0     1.008   -1.038405   -5.891977   11.676807
  69 N     7.0000    0    14.007   -2.370095    1.686770    5.685052
  70 C     6.0000    0    12.011   -2.001787    3.846915    6.710418
  71 C     6.0000    0    12.011   -0.640239    4.246404    9.040261
  72 C     6.0000    0    12.011   -0.270798    6.720433    9.862670
  73 C     6.0000    0    12.011    0.941840    7.148267   12.154907
  74 C     6.0000    0    12.011    1.596819    5.071647   13.581840
  75 C     6.0000    0    12.011    1.096419    2.617649   12.684787
  76 C     6.0000    0    12.011    1.577354    0.467140   14.419366
  77 N     7.0000    0    14.007    0.111116    2.221184   10.403509
  78 H     1.0000    0     1.008   -2.790559    5.564866    5.882340
  79 H     1.0000    0     1.008   -0.942973    8.286449    8.743196
  80 H     1.0000    0     1.008    1.285392    9.041017   12.832185
  81 H     1.0000    0     1.008    2.446817    5.302761   15.422055
  82 H     1.0000    0     1.008    0.510604   -1.190527   13.855094
  83 H     1.0000    0     1.008    3.586322    0.018708   14.485318
  84 H     1.0000    0     1.008    1.050121    0.996831   16.337627
  85 Zn   30.0000    0    65.380   -8.050044   -5.977960   -3.389602
  86 N     7.0000    0    14.007   -4.436699   -7.816852   -2.207011
  87 C     6.0000    0    12.011   -4.203129   -9.931267   -3.360311
  88 C     6.0000    0    12.011   -5.852860  -10.759534   -5.362287
  89 C     6.0000    0    12.011   -5.569401  -13.203139   -6.304126
  90 C     6.0000    0    12.011   -7.129748  -14.005138   -8.262261
  91 C     6.0000    0    12.011   -8.767006  -12.261299   -9.288760
  92 C     6.0000    0    12.011   -8.897776   -9.785947   -8.310827
  93 C     6.0000    0    12.011  -10.549585   -7.961605   -9.656501
  94 N     7.0000    0    14.007   -7.552479   -9.088260   -6.300158
  95 H     1.0000    0     1.008   -2.674718  -11.230453   -2.881643
  96 H     1.0000    0     1.008   -4.189901  -14.464531   -5.490788
  97 H     1.0000    0     1.008   -7.028269  -15.911683   -8.979601
  98 H     1.0000    0     1.008   -9.964715  -12.763966  -10.862146
  99 H     1.0000    0     1.008  -10.037091   -6.023691   -9.239816
 100 H     1.0000    0     1.008  -10.402375   -8.274166  -11.684933
 101 H     1.0000    0     1.008  -12.524349   -8.276245   -9.168006
 102 N     7.0000    0    14.007   -7.813262   -2.803409   -0.116974
 103 C     6.0000    0    12.011   -9.639115   -3.289635    1.385736
 104 C     6.0000    0    12.011  -11.060189   -5.617211    1.395185
 105 C     6.0000    0    12.011  -13.035142   -5.844923    3.121450
 106 C     6.0000    0    12.011  -14.252315   -8.159082    3.389602
 107 C     6.0000    0    12.011  -13.355073  -10.157656    1.983457
 108 C     6.0000    0    12.011  -11.374829   -9.794640    0.244342
 109 C     6.0000    0    12.011  -10.521806  -12.042469   -1.199598
 110 N     7.0000    0    14.007  -10.292960   -7.544921   -0.100533
 111 H     1.0000    0     1.008  -10.154821   -1.959457    2.878242
 112 H     1.0000    0     1.008  -13.611886   -4.237711    4.235443
 113 H     1.0000    0     1.008  -15.816063   -8.387927    4.678773
 114 H     1.0000    0     1.008  -14.171434  -12.017335    2.174886
 115 H     1.0000    0     1.008   -9.842072  -13.480739    0.109793
 116 H     1.0000    0     1.008  -12.104830  -12.895302   -2.203421
 117 H     1.0000    0     1.008   -9.030812  -11.579675   -2.519572
 118 N     7.0000    0    14.007   -6.128004   -2.937957   -5.713209
 119 C     6.0000    0    12.011   -7.876379   -1.641227   -6.769377
 120 C     6.0000    0    12.011  -10.544672   -2.108745   -6.462674
 121 C     6.0000    0    12.011  -12.243725   -0.471298   -7.631281
 122 C     6.0000    0    12.011  -14.823012   -0.937304   -7.438151
 123 C     6.0000    0    12.011  -15.568131   -3.105765   -6.205672
 124 C     6.0000    0    12.011  -13.753427   -4.736032   -5.142890
 125 C     6.0000    0    12.011  -14.644622   -7.182660   -4.102595
 126 N     7.0000    0    14.007  -11.299995   -4.177051   -5.166889
 127 H     1.0000    0     1.008   -7.423600   -0.096754   -8.061194
 128 H     1.0000    0     1.008  -11.561533    1.125521   -8.699921
 129 H     1.0000    0     1.008  -16.191174    0.311616   -8.291551
 130 H     1.0000    0     1.008  -17.542328   -3.607865   -6.091343
 131 H     1.0000    0     1.008  -15.456826   -6.924712   -2.227609
 132 H     1.0000    0     1.008  -16.160182   -7.923433   -5.282540
 133 H     1.0000    0     1.008  -13.118479   -8.549310   -4.020203
 134 Zn   30.0000    0    65.380    6.331338   -5.776893   -4.286277
 135 N     7.0000    0    14.007    4.445014   -6.564531   -0.527234
 136 C     6.0000    0    12.011    6.201892   -7.050379    1.064294
 137 C     6.0000    0    12.011    8.863949   -7.068899    0.474888
 138 C     6.0000    0    12.011   10.568482   -7.514874    2.432078
 139 C     6.0000    0    12.011   13.138888   -7.638273    1.899364
 140 C     6.0000    0    12.011   13.864732   -7.441930   -0.592618
 141 C     6.0000    0    12.011   12.042658   -7.072300   -2.495950
 142 C     6.0000    0    12.011   12.916278   -7.149023   -5.160086
 143 N     7.0000    0    14.007    9.602832   -6.776180   -1.953977
 144 H     1.0000    0     1.008    5.756673   -7.563251    3.012790
 145 H     1.0000    0     1.008    9.895551   -7.785861    4.337488
 146 H     1.0000    0     1.008   14.511207   -7.954046    3.374484
 147 H     1.0000    0     1.008   15.827401   -7.623533   -1.119474
 148 H     1.0000    0     1.008   13.819189   -5.373058   -5.681651
 149 H     1.0000    0     1.008   14.357383   -8.603734   -5.373625
 150 H     1.0000    0     1.008   11.365380   -7.539818   -6.441132
 151 N     7.0000    0    14.007    2.685301   -5.209597   -6.334362
 152 C     6.0000    0    12.011    2.360646   -7.082505   -7.831592
 153 C     6.0000    0    12.011    3.927607   -9.311248   -7.847088
 154 C     6.0000    0    12.011    3.518292  -11.129731   -9.707334
 155 C     6.0000    0    12.011    4.983964  -13.311609   -9.705822
 156 C     6.0000    0    12.011    6.660151  -13.635130   -7.739940
 157 C     6.0000    0    12.011    6.922445  -11.762600   -5.864009
 158 C     6.0000    0    12.011    8.605246  -12.344447   -3.696493
 159 N     7.0000    0    14.007    5.666911   -9.581667   -5.991188
 160 H     1.0000    0     1.008    0.801622   -7.092709   -9.183502
 161 H     1.0000    0     1.008    2.111580  -10.826808  -11.151463
 162 H     1.0000    0     1.008    4.782708  -14.720778  -11.166581
 163 H     1.0000    0     1.008    7.786239  -15.331348   -7.605392
 164 H     1.0000    0     1.008    8.191207  -11.163179   -2.076620
 165 H     1.0000    0     1.008    8.376022  -14.319022   -3.164724
 166 H     1.0000    0     1.008   10.580955  -12.119759   -4.229774
 167 N     7.0000    0    14.007    6.475714   -1.576410   -2.771094
 168 C     6.0000    0    12.011    8.342952   -0.546698   -3.903607
 169 C     6.0000    0    12.011    9.594706   -1.607968   -6.082650
 170 C     6.0000    0    12.011   11.678508   -0.334859   -7.071166
 171 C     6.0000    0    12.011   12.737132   -1.169740   -9.325043
 172 C     6.0000    0    12.011   11.566825   -3.153953  -10.547695
 173 C     6.0000    0    12.011    9.468473   -4.355252   -9.450520
 174 C     6.0000    0    12.011    8.236182   -6.444344  -10.874051
 175 N     7.0000    0    14.007    8.560648   -3.656053   -7.202502
 176 H     1.0000    0     1.008    9.028356    1.314305   -3.330642
 177 H     1.0000    0     1.008   12.459720    1.273297   -6.091154
 178 H     1.0000    0     1.008   14.384217   -0.264940  -10.118161
 179 H     1.0000    0     1.008   12.261488   -3.805342  -12.351250
 180 H     1.0000    0     1.008    6.192255   -6.274080  -10.779565
 181 H     1.0000    0     1.008    8.815950   -6.401069  -12.843902
 182 H     1.0000    0     1.008    8.783636   -8.280024  -10.119861
 183 Zn   30.0000    0    65.380   -0.520997    7.350657   -3.993558
 184 N     7.0000    0    14.007   -3.987889    5.161220   -2.662435
 185 C     6.0000    0    12.011   -5.815254    5.799758   -4.114123
 186 C     6.0000    0    12.011   -5.600014    7.484260   -6.245923
 187 C     6.0000    0    12.011   -7.747499    7.891118   -7.716508
 188 C     6.0000    0    12.011   -7.616730    9.528377   -9.767050
 189 C     6.0000    0    12.011   -5.366822   10.773329  -10.170695
 190 C     6.0000    0    12.011   -3.289824   10.351920   -8.561593
 191 C     6.0000    0    12.011   -1.016295   11.950061   -8.940294
 192 N     7.0000    0    14.007   -3.376563    8.659859   -6.699268
 193 H     1.0000    0     1.008   -7.725389    5.092623   -3.779641
 194 H     1.0000    0     1.008   -9.501921    6.964019   -7.247478
 195 H     1.0000    0     1.008   -9.236981    9.865693  -10.959089
 196 H     1.0000    0     1.008   -5.188432   12.125428  -11.687956
 197 H     1.0000    0     1.008    0.160060   11.191336  -10.451319
 198 H     1.0000    0     1.008   -1.580378   13.835063   -9.542550
 199 H     1.0000    0     1.008    0.084282   12.093113   -7.217998
 200 N     7.0000    0    14.007    1.831523    6.065643   -0.760237
 201 C     6.0000    0    12.011    2.235168    7.962172    0.688238
 202 C     6.0000    0    12.011    1.015350   10.381022    0.419519
 203 C     6.0000    0    12.011    1.767461   12.349927    1.999708
 204 C     6.0000    0    12.011    0.566729   14.679015    1.800720
 205 C     6.0000    0    12.011   -1.435436   14.861373    0.146265
 206 C     6.0000    0    12.011   -2.160524   12.772281   -1.339060
 207 C     6.0000    0    12.011   -4.459187   13.065000   -2.921139
 208 N     7.0000    0    14.007   -0.874187   10.605332   -1.289927
 209 H     1.0000    0     1.008    3.539079    7.809104    2.280521
 210 H     1.0000    0     1.008    3.287935   12.078374    3.330642
 211 H     1.0000    0     1.008    1.151788   16.271298    2.933233
 212 H     1.0000    0     1.008   -2.481588   16.604646   -0.024944
 213 H     1.0000    0     1.008   -5.316556   11.256154   -3.351051
 214 H     1.0000    0     1.008   -5.829616   14.235874   -1.929410
 215 H     1.0000    0     1.008   -4.014345   14.052004   -4.672537
 216 N     7.0000    0    14.007    0.288561    3.633754   -6.392188
 217 C     6.0000    0    12.011    1.655967    4.348260   -8.249221
 218 C     6.0000    0    12.011    2.898462    6.771078   -8.408336
 219 C     6.0000    0    12.011    4.246215    7.336673  -10.600797
 220 C     6.0000    0    12.011    5.673147    9.538771  -10.693960
 221 C     6.0000    0    12.011    5.788420   10.995372   -8.533814
 222 C     6.0000    0    12.011    4.384354   10.320172   -6.383873
 223 C     6.0000    0    12.011    4.617168   11.924928   -4.085588
 224 N     7.0000    0    14.007    2.884289    8.290606   -6.357417
 225 H     1.0000    0     1.008    2.058857    3.064947   -9.815615
 226 H     1.0000    0     1.008    4.170059    6.081139  -12.205363
 227 H     1.0000    0     1.008    6.695300   10.066382  -12.378651
 228 H     1.0000    0     1.008    6.948145   12.672126   -8.484870
 229 H     1.0000    0     1.008    4.897981   10.756321   -2.419983
 230 H     1.0000    0     1.008    6.211152   13.206540   -4.269080
 231 H     1.0000    0     1.008    2.933611   13.075771   -3.808176

--------------------------------
INTERNAL COORDINATES (ANGSTROEM)
--------------------------------
 C      0   0   0     0.000000000000     0.00000000     0.00000000
 C      1   0   0     1.390436999652     0.00000000     0.00000000
 C      2   1   0     1.398773269690   120.69250091     0.00000000
 C      3   2   1     1.392434142069   118.93418493   359.65104828
 C      4   3   2     1.395741831429   120.87941916     1.71431537
 C      5   4   3     1.389660782349   119.50817574   358.29508881
 H      2   1   3     1.076291809873   117.53668191   180.92104530
 H      4   3   2     1.076993579368   118.45688808   182.22562303
 H      6   5   4     1.077659394243   118.67664441   181.13332200
 C      1   2   3     3.900860393554   110.53740016   254.84917056
 C     10   1   2     1.393203800598    57.29157393   146.09911558
 C     11  10   1     1.395967023249   120.80325499   239.66046125
 C     12  11  10     1.389008488095   119.25102262   358.00232064
 C     13  12  11     1.397919986981   120.89671695     2.30281284
 C     14  13  12     1.390598770314   119.05780107   358.61250646
 H     11  10   1     1.076993240462   118.81175751    61.04786455
 H     13  12  11     1.075833360702   117.94328307   183.63506315
 H     15  14  13     1.075791029894   117.51054164   181.45398682
 C      7   2   1     2.961329816147   106.63782266   270.81394618
 C     19   7   2     1.387812339619   150.00192184    28.30370790
 C     20  19   7     1.396258589947   120.65610263   266.67880987
 C     21  20  19     1.389778777360   119.61342294   358.99138492
 C     22  21  20     1.396890006407   120.35957283   359.41264918
 C     23  22  21     1.390426862514   119.28500286     0.00000000
 H     20  19   7     1.077202747861   118.89866637    88.40822469
 H     22  21  20     1.077476333847   118.95942896   181.75046101
 H     24  23  22     1.076787982845   119.11326925   184.43800971
 C     17  13  12     2.929229214316   100.92755410   275.63648998
 C     28  17  13     1.391132959138   150.30834843    24.39848640
 C     29  28  17     1.395870058422   120.80042151   266.28370783
 C     30  29  28     1.390782491981   119.61700855   359.65575044
 C     31  30  29     1.396588386032   120.32629608   359.84774214
 C     32  31  30     1.389731031531   119.37665482   359.49760543
 H     29  28  17     1.076865697290   118.54763143    87.39575269
 H     31  30  29     1.077630112794   118.92942127   181.52057848
 H     33  32  31     1.075889459935   117.72806779   183.09065257
 Zn     1   2   3     3.368898511383    98.38402397   198.90608721
 N      1   2   3     1.400910810866   120.36975175   179.44642575
 C     38   1   2     1.281377621937   117.70240103   224.06962414
 C     39  38   1     1.440701638092   124.13536883   189.91501731
 C     40  39  38     1.394287251609   118.69695421   185.04279301
 C     41  40  39     1.391037098714   119.04196227   181.64998016
 C     42  41  40     1.377632512683   117.56081828     4.56910929
 C     43  42  41     1.409927618710   120.55469387   357.68743161
 C     44  43  42     1.484243932108   117.20737420   174.77521449
 N     44  43  42     1.332387225997   121.59444519   356.49800200
 H     39  38   1     1.091495826836   120.69326676     8.35125595
 H     41  40  39     1.078697325481   120.28081323     3.12711999
 H     42  41  40     1.079204248509   121.17241921   183.04396661
 H     43  42  41     1.079594988873   120.54874945   177.34793964
 H     45  44  43     1.083351808048   111.78131650   200.31682125
 H     45  44  43     1.089051904181   109.32364188   321.13349780
 H     45  44  43     1.089266950752   110.65541940    77.74348834
 N     19   7   2     1.403713849045    60.17918269   130.39129020
 C     54  19   7     1.277578592494   117.60101011    93.44034638
 C     55  54  19     1.441941333758   124.40417234   192.42342848
 C     56  55  54     1.393454157839   117.94743246   181.91350891
 C     57  56  55     1.391015377341   119.33361652   187.19401065
 C     58  57  56     1.377388765019   117.42161621     2.59395734
 C     59  58  57     1.408290342934   120.37617868   356.61685100
 C     60  59  58     1.483878873089   116.88266796   179.94469221
 N     60  59  58     1.333413791739   122.10052781     0.18233842
 H     55  54  19     1.092464026868   120.61951799     8.37148638
 H     57  56  55     1.078997261350   120.16139902     7.26687376
 H     58  57  56     1.079330412802   121.23699275   181.30927361
 H     59  58  57     1.079421090215   120.72211716   177.27854498
 H     61  60  59     1.090096605811   109.43050375   301.98975770
 H     61  60  59     1.089921029249   110.39208236    58.22446416
 H     61  60  59     1.081828909763   111.85987017   180.87436932
 N     10   1   2     1.401007558866    82.60306753   278.08630518
 C     70  10   1     1.280264964763   118.83209125   167.58497199
 C     71  70  10     1.443555547944   124.66017862   184.07921676
 C     72  71  70     1.393421662671   118.31815094   176.62341475
 C     73  72  71     1.390828835623   119.34490328   177.30595752
 C     74  73  72     1.377638842368   117.66263222   356.35708210
 C     75  74  73     1.407771675379   120.24268714     1.58317566
 C     76  75  74     1.484033240868   117.80999740   186.72705336
 N     76  75  74     1.331617752961   121.64664948     3.58643385
 H     71  70  10     1.092110255423   120.99771905     6.51859491
 H     73  72  71     1.078982826555   120.25746011   358.15946178
 H     74  73  72     1.079214695971   121.22688874   178.97984986
 H     75  74  73     1.079612787068   120.58728526   183.43430779
 H     77  76  75     1.085035506331   111.13151407   158.61538909
 H     77  76  75     1.089821503734   110.73617551   281.05483420
 H     77  76  75     1.089420534046   109.57880936    37.66292261
 Zn     5   4   3     3.345035273357   136.58552696   146.05500638
 N      5   4   3     1.400189151508   120.30063593   177.89532319
 C     87   5   4     1.280500003905   118.18082858    46.86071624
 C     88  87   5     1.441028885901   123.89591131   188.72941390
 C     89  88  87     1.393918996929   118.67420036   186.33714739
 C     90  89  88     1.391260683697   119.04004179   180.93569012
 C     91  90  89     1.377416073668   117.55881532     4.43536547
 C     92  91  90     1.410118044704   120.56243421   357.82592578
 C     93  92  91     1.484295920630   117.19484881   174.99998689
 N     93  92  91     1.332368661445   121.61820512   356.56603069
 H     88  87   5     1.091317818053   120.75595797     7.73578553
 H     90  89  88     1.078749465817   120.27705679     2.44716811
 H     91  90  89     1.079286366077   121.16991367   182.99985926
 H     92  91  90     1.079667170937   120.55106377   177.50016439
 H     94  93  92     1.083429711610   111.75149935   200.79639190
 H     94  93  92     1.088858636371   109.39111553   321.66753484
 H     94  93  92     1.089297709536   110.59037873    78.32129338
 N     12  11  10     1.404826900369   119.92714936   177.82609619
 C    103  12  11     1.277532297048   117.26130045    56.07297208
 C    104 103  12     1.443126428973   124.62171253   192.07399880
 C    105 104 103     1.393282638232   117.83695101   181.23923055
 C    106 105 104     1.390915374852   119.36599192   187.47312650
 C    107 106 105     1.377547679756   117.46615895     2.60691609
 C    108 107 106     1.407817072634   120.32481283   356.42004707
 C    109 108 107     1.484089289767   116.97495213   180.12671039
 N    109 108 107     1.333548930486   122.06140949     0.36543717
 H    104 103  12     1.092581191491   120.60417351     7.94882667
 H    106 105 104     1.078891811073   120.14917807     7.53810692
 H    107 106 105     1.079267483064   121.22006033   181.40075438
 H    108 107 106     1.079508452954   120.74831382   177.28264684
 H    110 109 108     1.090306245969   109.42921984   299.66872278
 H    110 109 108     1.089764387379   110.43119528    55.88594353
 H    110 109 108     1.081849924897   111.88903633   178.58799449
 N     28  17  13     1.399817420237    61.70447724   124.61250351
 C    119  28  17     1.280326009265   119.25558435    67.11377461
 C    120 119  28     1.442668378388   124.48893875   184.73370960
 C    121 120 119     1.393420833776   118.35691430   177.00964505
 C    122 121 120     1.390758214069   119.36519398   177.68346910
 C    123 122 121     1.377531698365   117.60741110   356.30593188
 C    124 123 122     1.408091310960   120.28193231     1.41926705
 C    125 124 123     1.483814307789   117.77577029   186.92405775
 N    125 124 123     1.331631262775   121.66905769     3.78057689
 H    120 119  28     1.092106409651   121.05088925     7.04947536
 H    122 121 120     1.078951458593   120.24699815   358.64447642
 H    123 122 121     1.079308746374   121.26552312   178.87363992
 H    124 123 122     1.079654958772   120.56409656   183.32132719
 H    126 125 124     1.089872070474   110.72064710   280.22839412
 H    126 125 124     1.089377510324   109.59165097    36.87445834
 H    126 125 124     1.084959427813   111.09670492   157.81134096
 Zn     8   4   3     3.357793926077   105.09152795   338.22170430
 N      3   2   1     1.400277779585   122.13384660   178.76105390
 C    136   3   2     1.280524634671   118.92182687    34.64741443
 C    137 136   3     1.442849035762   124.61339669   184.02216770
 C    138 137 136     1.393547448062   118.19281130   177.02222204
 C    139 138 137     1.390638608697   119.36656940   177.57318135
 C    140 139 138     1.377424302820   117.59886576   356.62637107
 C    141 140 139     1.407974729887   120.28967290     1.41028832
 C    142 141 140     1.484218882106   117.54092508   186.34648778
 N    142 141 140     1.331821436980   121.74723788     3.39245321
 H    137 136   3     1.091939801454   120.95111105     6.33565053
 H    139 138 137     1.078906696615   120.22831855   358.37278328
 H    140 139 138     1.079178025165   121.25404214   179.11248505
 H    141 140 139     1.079654856887   120.58110092   183.21565641
 H    143 142 141     1.089813231705   110.70313326   281.31505125
 H    143 142 141     1.089458489342   109.62587205    37.94413886
 H    143 142 141     1.084372233138   111.30216816   158.96145938
 N     30  29  28     1.400994254092   119.82880196   179.42507149
 C    152  30  29     1.280442790600   117.96131222    47.05618593
 C    153 152  30     1.441743472328   124.02375245   189.03841032
 C    154 153 152     1.393549500377   118.65343118   185.34387655
 C    155 154 153     1.390919537572   119.08707195   181.36364926
 C    156 155 154     1.377789000537   117.55275785     4.39192099
 C    157 156 155     1.409468531043   120.51935179   357.75899844
 C    158 157 156     1.484385953854   117.22439051   174.99243609
 N    158 157 156     1.333380463334   121.59331599   356.60494062
 H    153 152  30     1.091994194124   120.70185027     7.64727151
 H    155 154 153     1.078809107303   120.33378158     2.71503728
 H    156 155 154     1.079323741979   121.20339499   182.92923699
 H    157 156 155     1.079746271121   120.55615691   177.40994455
 H    159 158 157     1.083303586258   111.74079906   200.51105780
 H    159 158 157     1.088905716763   109.38429574   321.38527702
 H    159 158 157     1.089423838550   110.66636539    78.02266175
 N     23  22  21     1.404634678484   119.51029159   180.51294374
 C    168  23  22     1.277661187483   117.31998318    55.49247743
 C    169 168  23     1.443540068720   124.30798308   192.29610035
 C    170 169 168     1.394077684349   118.33902856   182.59835019
 C    171 170 169     1.389800190675   119.15835019   187.01199729
 C    172 171 170     1.380087493603   117.60040440     3.51501194
 C    173 172 171     1.405061923902   120.34017756   356.46353950
 C    174 173 172     1.488228997836   118.24238799   178.54411954
 N    174 173 172     1.335227441300   121.81075023   359.11485776
 H    169 168  23     1.092388470280   120.73474757     8.14840037
 H    171 170 169     1.078909875754   120.25779465     7.23861935
 H    172 171 170     1.079390610484   121.20897740   181.81646420
 H    173 172 171     1.079271610856   120.31286088   176.82587191
 H    175 174 173     1.086497386099   110.56699508   223.12615255
 H    175 174 173     1.086852524494   110.25076980   343.56415909
 H    175 174 173     1.089414916366   111.12518727   102.23196734
 Zn    21  20  19     3.348861257204   134.90790464   148.47700248
 N     14  13  12     1.401490217590   121.09797794   176.97987267
 C    185  14  13     1.280389257218   118.42706833    36.97763956
 C    186 185  14     1.442281796321   124.94153371   186.87728002
 C    187 186 185     1.394042427618   117.88546670   176.86387432
 C    188 187 186     1.390280406968   119.43042353   179.18791633
 C    189 188 187     1.377378219662   117.52460696   356.94822252
 C    190 189 188     1.408120044598   120.34302935     0.76553089
 C    191 190 189     1.484189428611   117.44065144   186.24936204
 N    191 190 189     1.332313108845   121.79208609     3.60429270
 H    186 185  14     1.092278023216   120.74836264     7.89759203
 H    188 187 186     1.078989416074   120.18401820     0.12507875
 H    189 188 187     1.079307949568   121.31080737   179.15453456
 H    190 189 188     1.079583262190   120.52490010   182.61900026
 H    192 191 190     1.089985623758   110.61630543   277.03653239
 H    192 191 190     1.088888511281   109.83345731    33.96662263
 H    192 191 190     1.084237155792   111.20493771   154.99384686
 N     21  20  19     1.401014535970   119.28210138   178.91256199
 C    201  21  20     1.280765462526   117.83948675    47.11702790
 C    202 201  21     1.440587064360   124.22473254   189.88318072
 C    203 202 201     1.393983518554   118.48723483   184.93558238
 C    204 203 202     1.390639241500   119.11440582   181.44991291
 C    205 204 203     1.377807225268   117.48675901     4.20774171
 C    206 205 204     1.409663768421   120.57633066   357.87725360
 C    207 206 205     1.484764900582   117.10201893   175.30200234
 N    207 206 205     1.333772611805   121.63124701   356.69988063
 H    202 201  21     1.092078641857   120.59765850     8.34868226
 H    204 203 202     1.078920451192   120.32812069     2.73722479
 H    205 204 203     1.079345825026   121.25043502   182.73966210
 H    206 205 204     1.079670120917   120.49455576   177.50912951
 H    208 207 206     1.083435175726   111.67246214   204.01223632
 H    208 207 206     1.088684637533   109.46870853   324.77686413
 H    208 207 206     1.089572709827   110.64864843    81.64042987
 N     32  31  30     1.404464396131   119.86814312   179.72610568
 C    217  32  31     1.277597690981   117.27006842    55.14632096
 C    218 217  32     1.443321274007   124.45583750   191.61618301
 C    219 218 217     1.394381142299   118.17813485   182.67446910
 C    220 219 218     1.389435349342   119.17726891   186.66670592
 C    221 220 219     1.380047553529   117.58501196     3.46572498
 C    222 221 220     1.405017288150   120.35137328   356.46182008
 C    223 222 221     1.488442582030   118.21475021   178.74168094
 N    223 222 221     1.335586178425   121.82218427   359.21833235
 H    218 217  32     1.092568652305   120.67211484     7.75133538
 H    220 219 218     1.078898632866   120.23472131     6.99281401
 H    221 220 219     1.079489555299   121.23383384   181.86866092
 H    222 221 220     1.079166247619   120.28126346   176.90581961
 H    224 223 222     1.086906840534   110.44541047   226.92676237
 H    224 223 222     1.086681139985   110.32259590   347.18323861
 H    224 223 222     1.089097814707   111.18965512   106.15779185

---------------------------
INTERNAL COORDINATES (A.U.)
---------------------------
 C      0   0   0     0.000000000000     0.00000000     0.00000000
 C      1   0   0     2.627545135813     0.00000000     0.00000000
 C      2   1   0     2.643298403164   120.69250091     0.00000000
 C      3   2   1     2.631319188032   118.93418493   359.65104828
 C      4   3   2     2.637569815058   120.87941916     1.71431537
 C      5   4   3     2.626078297691   119.50817574   358.29508881
 H      2   1   3     2.033896760843   117.53668191   180.92104530
 H      4   3   2     2.035222912997   118.45688808   182.22562303
 H      6   5   4     2.036481120767   118.67664441   181.13332200
 C      1   2   3     7.371557830478   110.53740016   254.84917056
 C     10   1   2     2.632773631868    57.29157393   146.09911558
 C     11  10   1     2.637995365927   120.80325499   239.66046125
 C     12  11  10     2.624845640192   119.25102262   358.00232064
 C     13  12  11     2.641685932528   120.89671695     2.30281284
 C     14  13  12     2.627850838062   119.05780107   358.61250646
 H     11  10   1     2.035222272557   118.81175751    61.04786455
 H     13  12  11     2.033030417463   117.94328307   183.63506315
 H     15  14  13     2.032950423828   117.51054164   181.45398682
 C      7   2   1     5.596102344733   106.63782266   270.81394618
 C     19   7   2     2.622585247157   150.00192184    28.30370790
 C     20  19   7     2.638546347134   120.65610263   266.67880987
 C     21  20  19     2.626301275946   119.61342294   358.99138492
 C     22  21  20     2.639739551321   120.35957283   359.41264918
 C     23  22  21     2.627525979398   119.28500286     0.00000000
 H     20  19   7     2.035618184165   118.89866637    88.40822469
 H     22  21  20     2.036135186752   118.95942896   181.75046101
 H     24  23  22     2.034834391875   119.11326925   184.43800971
 C     17  13  12     5.535440998538   100.92755410   275.63648998
 C     28  17  13     2.628860308642   150.30834843    24.39848640
 C     29  28  17     2.637812128959   120.80042151   266.28370783
 C     30  29  28     2.628198021696   119.61700855   359.65575044
 C     31  30  29     2.639169571416   120.32629608   359.84774214
 C     32  31  30     2.626211049405   119.37665482   359.49760543
 H     29  28  17     2.034981250892   118.54763143    87.39575269
 H     31  30  29     2.036425786847   118.92942127   181.52057848
 H     33  32  31     2.033136429650   117.72806779   183.09065257
 Zn     1   2   3     6.366295559489    98.38402397   198.90608721
 N      1   2   3     2.647337770585   120.36975175   179.44642575
 C     38   1   2     2.421452779596   117.70240103   224.06962414
 C     39  38   1     2.722531536685   124.13536883   189.91501731
 C     40  39  38     2.634821057559   118.69695421   185.04279301
 C     41  40  39     2.628679158695   119.04196227   181.64998016
 C     42  41  40     2.603348162156   117.56081828     4.56910929
 C     43  42  41     2.664377068013   120.55469387   357.68743161
 C     44  43  42     2.804814547619   117.20737420   174.77521449
 N     44  43  42     2.517846961469   121.59444519   356.49800200
 H     39  38   1     2.062628189038   120.69326676     8.35125595
 H     41  40  39     2.038442526553   120.28081323     3.12711999
 H     42  41  40     2.039400472246   121.17241921   183.04396661
 H     43  42  41     2.040138864524   120.54874945   177.34793964
 H     45  44  43     2.047238223898   111.78131650   200.31682125
 H     45  44  43     2.058009844527   109.32364188   321.13349780
 H     45  44  43     2.058416223652   110.65541940    77.74348834
 N     19   7   2     2.652634745087    60.17918269   130.39129020
 C     54  19   7     2.414273654375   117.60101011    93.44034638
 C     55  54  19     2.724874221984   124.40417234   192.42342848
 C     56  55  54     2.633246738490   117.94743246   181.91350891
 C     57  56  55     2.628638111248   119.33361652   187.19401065
 C     58  57  56     2.602887545826   117.42161621     2.59395734
 C     59  58  57     2.661283065191   120.37617868   356.61685100
 C     60  59  58     2.804124686050   116.88266796   179.94469221
 N     60  59  58     2.519786889580   122.10052781     0.18233842
 H     55  54  19     2.064457821941   120.61951799     8.37148638
 H     57  56  55     2.039009323202   120.16139902     7.26687376
 H     58  57  56     2.039638888209   121.23699275   181.30927361
 H     59  58  57     2.039810243684   120.72211716   177.27854498
 H     61  60  59     2.059984044499   109.43050375   301.98975770
 H     61  60  59     2.059652252883   110.39208236    58.22446416
 H     61  60  59     2.044360363212   111.85987017   180.87436932
 N     10   1   2     2.647520597811    82.60306753   278.08630518
 C     70  10   1     2.419350162257   118.83209125   167.58497199
 C     71  70  10     2.727924644717   124.66017862   184.07921676
 C     72  71  70     2.633185331521   118.31815094   176.62341475
 C     73  72  71     2.628285598488   119.34490328   177.30595752
 C     74  73  72     2.603360123527   117.66263222   356.35708210
 C     75  74  73     2.660302925558   120.24268714     1.58317566
 C     76  75  74     2.804416398875   117.80999740   186.72705336
 N     76  75  74     2.516392868163   121.64664948     3.58643385
 H     71  70  10     2.063789290796   120.99771905     6.51859491
 H     73  72  71     2.038982045393   120.25746011   358.15946178
 H     74  73  72     2.039420215088   121.22688874   178.97984986
 H     75  74  73     2.040172498237   120.58728526   183.43430779
 H     77  76  75     2.050419952547   111.13151407   158.61538909
 H     77  76  75     2.059464176915   110.73617551   281.05483420
 H     77  76  75     2.058706454016   109.57880936    37.66292261
 Zn     5   4   3     6.321200574950   136.58552696   146.05500638
 N      5   4   3     2.645974032037   120.30063593   177.89532319
 C     87   5   4     2.419794321865   118.18082858    46.86071624
 C     88  87   5     2.723149945422   123.89591131   188.72941390
 C     89  88  87     2.634125157066   118.67420036   186.33714739
 C     90  89  88     2.629101673079   119.04004179   180.93569012
 C     91  90  89     2.602939151694   117.55881532     4.43536547
 C     92  91  90     2.664736920991   120.56243421   357.82592578
 C     93  92  91     2.804912791688   117.19484881   174.99998689
 N     93  92  91     2.517811879550   121.61820512   356.56603069
 H     88  87   5     2.062291801189   120.75595797     7.73578553
 H     90  89  88     2.038541057508   120.27705679     2.44716811
 H     91  90  89     2.039555651961   121.16991367   182.99985926
 H     92  91  90     2.040275268857   120.55106377   177.50016439
 H     94  93  92     2.047385440297   111.75149935   200.79639190
 H     94  93  92     2.057644621296   109.39111553   321.66753484
 H     94  93  92     2.058474349330   110.59037873    78.32129338
 N     12  11  10     2.654738107263   119.92714936   177.82609619
 C    103  12  11     2.414186168660   117.26130045    56.07297208
 C    104 103  12     2.727113727382   124.62171253   192.07399880
 C    105 104 103     2.632922613407   117.83695101   181.23923055
 C    106 105 104     2.628449133931   119.36599192   187.47312650
 C    107 106 105     2.603187851157   117.46615895     2.60691609
 C    108 107 106     2.660388713937   120.32481283   356.42004707
 C    109 108 107     2.804522315945   116.97495213   180.12671039
 N    109 108 107     2.520042264802   122.06140949     0.36543717
 H    104 103  12     2.064679230991   120.60417351     7.94882667
 H    106 105 104     2.038810051058   120.14917807     7.53810692
 H    107 106 105     2.039519968238   121.22006033   181.40075438
 H    108 107 106     2.039975335337   120.74831382   177.28264684
 H    110 109 108     2.060380206986   109.42921984   299.66872278
 H    110 109 108     2.059356242647   110.43119528    55.88594353
 H    110 109 108     2.044400076059   111.88903633   178.58799449
 N     28  17  13     2.645271561741    61.70447724   124.61250351
 C    119  28  17     2.419465519647   119.25558435    67.11377461
 C    120 119  28     2.726248137221   124.48893875   184.73370960
 C    121 120 119     2.633183765136   118.35691430   177.00964505
 C    122 121 120     2.628152143092   119.36519398   177.68346910
 C    123 122 121     2.603157650705   117.60741110   356.30593188
 C    124 123 122     2.660906949268   120.28193231     1.41926705
 C    125 124 123     2.804002675316   117.77577029   186.92405775
 N    125 124 123     2.516418398013   121.66905769     3.78057689
 H    120 119  28     2.063782023340   121.05088925     7.04947536
 H    122 121 120     2.038922768536   120.24699815   358.64447642
 H    123 122 121     2.039597944593   121.26552312   178.87363992
 H    124 123 122     2.040252191208   120.56409656   183.32132719
 H    126 125 124     2.059559734206   110.72064710   280.22839412
 H    126 125 124     2.058625150966   109.59165097    36.87445834
 H    126 125 124     2.050276184982   111.09670492   157.81134096
 Zn     8   4   3     6.345310934430   105.09152795   338.22170430
 N      3   2   1     2.646141514831   122.13384660   178.76105390
 C    136   3   2     2.419840867268   118.92182687    34.64741443
 C    137 136   3     2.726589530183   124.61339669   184.02216770
 C    138 137 136     2.633423031462   118.19281130   177.02222204
 C    139 138 137     2.627926121695   119.36656940   177.57318135
 C    140 139 138     2.602954702538   117.59886576   356.62637107
 C    141 140 139     2.660686642968   120.28967290     1.41028832
 C    142 141 140     2.804767209975   117.54092508   186.34648778
 N    142 141 140     2.516777775178   121.74723788     3.39245321
 H    137 136   3     2.063467179477   120.95111105     6.33565053
 H    139 138 137     2.038838180655   120.22831855   358.37278328
 H    140 139 138     2.039350917309   121.25404214   179.11248505
 H    141 140 139     2.040251998675   120.58110092   183.21565641
 H    143 142 141     2.059448545047   110.70313326   281.31505125
 H    143 142 141     2.058778179133   109.62587205    37.94413886
 H    143 142 141     2.049166547859   111.30216816   158.96145938
 N     30  29  28     2.647495455432   119.82880196   179.42507149
 C    152  30  29     2.419686204388   117.96131222    47.05618593
 C    153 152  30     2.724500318068   124.02375245   189.03841032
 C    154 153 152     2.633426909775   118.65343118   185.34387655
 C    155 154 153     2.628457000332   119.08707195   181.36364926
 C    156 155 154     2.603643881344   117.55275785     4.39192099
 C    157 156 155     2.663509518051   120.51935179   357.75899844
 C    158 157 156     2.805082929824   117.22439051   174.99243609
 N    158 157 156     2.519723908022   121.59331599   356.60494062
 H    153 152  30     2.063569966726   120.70185027     7.64727151
 H    155 154 153     2.038653763583   120.33378158     2.71503728
 H    156 155 154     2.039626282180   121.20339499   182.92923699
 H    157 156 155     2.040424746542   120.55615691   177.40994455
 H    159 158 157     2.047147097923   111.74079906   200.51105780
 H    159 158 157     2.057733590344   109.38429574   321.38527702
 H    159 158 157     2.058712698624   110.66636539    78.02266175
 N     23  22  21     2.654374860543   119.51029159   180.51294374
 C    168  23  22     2.414429736283   117.31998318    55.49247743
 C    169 168  23     2.727895393223   124.30798308   192.29610035
 C    170 169 168     2.634425032831   118.33902856   182.59835019
 C    171 170 169     2.626341741247   119.15835019   187.01199729
 C    172 171 170     2.607987403760   117.60040440     3.51501194
 C    173 172 171     2.655182237376   120.34017756   356.46353950
 C    174 173 172     2.812345230470   118.24238799   178.54411954
 N    174 173 172     2.523214190553   121.81075023   359.11485776
 H    169 168  23     2.064315040682   120.73474757     8.14840037
 H    171 170 169     2.038844188358   120.25779465     7.23861935
 H    172 171 170     2.039752645340   121.20897740   181.81646420
 H    173 172 171     2.039527768634   120.31286088   176.82587191
 H    175 174 173     2.053182504948   110.56699508   223.12615255
 H    175 174 173     2.053853619255   110.25076980   343.56415909
 H    175 174 173     2.058695838140   111.12518727   102.23196734
 Zn    21  20  19     6.328430636614   134.90790464   148.47700248
 N     14  13  12     2.648432690614   121.09797794   176.97987267
 C    185  14  13     2.419585040957   118.42706833    36.97763956
 C    186 185  14     2.725517602987   124.94153371   186.87728002
 C    187 186 185     2.634358407265   117.88546670   176.86387432
 C    188 187 186     2.627249218527   119.43042353   179.18791633
 C    189 188 187     2.602867617990   117.52460696   356.94822252
 C    190 189 188     2.660961247976   120.34302935     0.76553089
 C    191 190 189     2.804711550935   117.44065144   186.24936204
 N    191 190 189     2.517706900350   121.79208609     3.60429270
 H    186 185  14     2.064106325979   120.74836264     7.89759203
 H    188 187 186     2.038994497780   120.18401820     0.12507875
 H    189 188 187     2.039596438847   121.31080737   179.15453456
 H    190 189 188     2.040116704304   120.52490010   182.61900026
 H    192 191 190     2.059774318815   110.61630543   277.03653239
 H    192 191 190     2.057701076695   109.83345731    33.96662263
 H    192 191 190     2.048911288669   111.20493771   154.99384686
 N     21  20  19     2.647533782627   119.28210138   178.91256199
 C    201  21  20     2.420295965960   117.83948675    47.11702790
 C    202 201  21     2.722315023709   124.22473254   189.88318072
 C    203 202 201     2.634247085267   118.48723483   184.93558238
 C    204 203 202     2.627927317519   119.11440582   181.44991291
 C    205 204 203     2.603678321094   117.48675901     4.20774171
 C    206 205 204     2.663878463228   120.57633066   357.87725360
 C    207 206 205     2.805799035359   117.10201893   175.30200234
 N    207 206 205     2.520464961236   121.63124701   356.69988063
 H    202 201  21     2.063729549814   120.59765850     8.34868226
 H    204 203 202     2.038864173039   120.32812069     2.73722479
 H    205 204 203     2.039668013090   121.25043502   182.73966210
 H    206 205 204     2.040280843510   120.49455576   177.50912951
 H    208 207 206     2.047395765979   111.67246214   204.01223632
 H    208 207 206     2.057315811144   109.46870853   324.77686413
 H    208 207 206     2.058994024568   110.64864843    81.64042987
 N     32  31  30     2.654053073531   119.86814312   179.72610568
 C    217  32  31     2.414309745284   117.27006842    55.14632096
 C    218 217  32     2.727481931135   124.45583750   191.61618301
 C    219 218 217     2.634998485250   118.17813485   182.67446910
 C    220 219 218     2.625652291045   119.17726891   186.66670592
 C    221 220 219     2.607911927957   117.58501196     3.46572498
 C    222 221 220     2.655097888028   120.35137328   356.46182008
 C    223 222 221     2.812748846103   118.21475021   178.74168094
 N    223 222 221     2.523892105474   121.82218427   359.21833235
 H    218 217  32     2.064655535364   120.67211484     7.75133538
 H    220 219 218     2.038822942379   120.23472131     6.99281401
 H    221 220 219     2.039939623944   121.23383384   181.86866092
 H    222 221 220     2.039328660971   120.28126346   176.90581961
 H    224 223 222     2.053956261695   110.44541047   226.92676237
 H    224 223 222     2.053529749470   110.32259590   347.18323861
 H    224 223 222     2.058096602849   111.18965512   106.15779185

---------------------
BASIS SET INFORMATION
---------------------
There are 4 groups of distinct atoms

 Group   1 Type C   : 11s6p1d contracted to 5s3p1d pattern {62111/411/1}
 Group   2 Type H   : 4s1p contracted to 2s1p pattern {31/1}
 Group   3 Type Zn  : 17s11p6d contracted to 6s4p3d pattern {842111/6311/411}
 Group   4 Type N   : 11s6p2d contracted to 5s3p2d pattern {62111/411/11}

Atom   0C    basis set group =>   1
Atom   1C    basis set group =>   1
Atom   2C    basis set group =>   1
Atom   3C    basis set group =>   1
Atom   4C    basis set group =>   1
Atom   5C    basis set group =>   1
Atom   6H    basis set group =>   2
Atom   7H    basis set group =>   2
Atom   8H    basis set group =>   2
Atom   9C    basis set group =>   1
Atom  10C    basis set group =>   1
Atom  11C    basis set group =>   1
Atom  12C    basis set group =>   1
Atom  13C    basis set group =>   1
Atom  14C    basis set group =>   1
Atom  15H    basis set group =>   2
Atom  16H    basis set group =>   2
Atom  17H    basis set group =>   2
Atom  18C    basis set group =>   1
Atom  19C    basis set group =>   1
Atom  20C    basis set group =>   1
Atom  21C    basis set group =>   1
Atom  22C    basis set group =>   1
Atom  23C    basis set group =>   1
Atom  24H    basis set group =>   2
Atom  25H    basis set group =>   2
Atom  26H    basis set group =>   2
Atom  27C    basis set group =>   1
Atom  28C    basis set group =>   1
Atom  29C    basis set group =>   1
Atom  30C    basis set group =>   1
Atom  31C    basis set group =>   1
Atom  32C    basis set group =>   1
Atom  33H    basis set group =>   2
Atom  34H    basis set group =>   2
Atom  35H    basis set group =>   2
Atom  36Zn   basis set group =>   3
Atom  37N    basis set group =>   4
Atom  38C    basis set group =>   1
Atom  39C    basis set group =>   1
Atom  40C    basis set group =>   1
Atom  41C    basis set group =>   1
Atom  42C    basis set group =>   1
Atom  43C    basis set group =>   1
Atom  44C    basis set group =>   1
Atom  45N    basis set group =>   4
Atom  46H    basis set group =>   2
Atom  47H    basis set group =>   2
Atom  48H    basis set group =>   2
Atom  49H    basis set group =>   2
Atom  50H    basis set group =>   2
Atom  51H    basis set group =>   2
Atom  52H    basis set group =>   2
Atom  53N    basis set group =>   4
Atom  54C    basis set group =>   1
Atom  55C    basis set group =>   1
Atom  56C    basis set group =>   1
Atom  57C    basis set group =>   1
Atom  58C    basis set group =>   1
Atom  59C    basis set group =>   1
Atom  60C    basis set group =>   1
Atom  61N    basis set group =>   4
Atom  62H    basis set group =>   2
Atom  63H    basis set group =>   2
Atom  64H    basis set group =>   2
Atom  65H    basis set group =>   2
Atom  66H    basis set group =>   2
Atom  67H    basis set group =>   2
Atom  68H    basis set group =>   2
Atom  69N    basis set group =>   4
Atom  70C    basis set group =>   1
Atom  71C    basis set group =>   1
Atom  72C    basis set group =>   1
Atom  73C    basis set group =>   1
Atom  74C    basis set group =>   1
Atom  75C    basis set group =>   1
Atom  76C    basis set group =>   1
Atom  77N    basis set group =>   4
Atom  78H    basis set group =>   2
Atom  79H    basis set group =>   2
Atom  80H    basis set group =>   2
Atom  81H    basis set group =>   2
Atom  82H    basis set group =>   2
Atom  83H    basis set group =>   2
Atom  84H    basis set group =>   2
Atom  85Zn   basis set group =>   3
Atom  86N    basis set group =>   4
Atom  87C    basis set group =>   1
Atom  88C    basis set group =>   1
Atom  89C    basis set group =>   1
Atom  90C    basis set group =>   1
Atom  91C    basis set group =>   1
Atom  92C    basis set group =>   1
Atom  93C    basis set group =>   1
Atom  94N    basis set group =>   4
Atom  95H    basis set group =>   2
Atom  96H    basis set group =>   2
Atom  97H    basis set group =>   2
Atom  98H    basis set group =>   2
Atom  99H    basis set group =>   2
Atom 100H    basis set group =>   2
Atom 101H    basis set group =>   2
Atom 102N    basis set group =>   4
Atom 103C    basis set group =>   1
Atom 104C    basis set group =>   1
Atom 105C    basis set group =>   1
Atom 106C    basis set group =>   1
Atom 107C    basis set group =>   1
Atom 108C    basis set group =>   1
Atom 109C    basis set group =>   1
Atom 110N    basis set group =>   4
Atom 111H    basis set group =>   2
Atom 112H    basis set group =>   2
Atom 113H    basis set group =>   2
Atom 114H    basis set group =>   2
Atom 115H    basis set group =>   2
Atom 116H    basis set group =>   2
Atom 117H    basis set group =>   2
Atom 118N    basis set group =>   4
Atom 119C    basis set group =>   1
Atom 120C    basis set group =>   1
Atom 121C    basis set group =>   1
Atom 122C    basis set group =>   1
Atom 123C    basis set group =>   1
Atom 124C    basis set group =>   1
Atom 125C    basis set group =>   1
Atom 126N    basis set group =>   4
Atom 127H    basis set group =>   2
Atom 128H    basis set group =>   2
Atom 129H    basis set group =>   2
Atom 130H    basis set group =>   2
Atom 131H    basis set group =>   2
Atom 132H    basis set group =>   2
Atom 133H    basis set group =>   2
Atom 134Zn   basis set group =>   3
Atom 135N    basis set group =>   4
Atom 136C    basis set group =>   1
Atom 137C    basis set group =>   1
Atom 138C    basis set group =>   1
Atom 139C    basis set group =>   1
Atom 140C    basis set group =>   1
Atom 141C    basis set group =>   1
Atom 142C    basis set group =>   1
Atom 143N    basis set group =>   4
Atom 144H    basis set group =>   2
Atom 145H    basis set group =>   2
Atom 146H    basis set group =>   2
Atom 147H    basis set group =>   2
Atom 148H    basis set group =>   2
Atom 149H    basis set group =>   2
Atom 150H    basis set group =>   2
Atom 151N    basis set group =>   4
Atom 152C    basis set group =>   1
Atom 153C    basis set group =>   1
Atom 154C    basis set group =>   1
Atom 155C    basis set group =>   1
Atom 156C    basis set group =>   1
Atom 157C    basis set group =>   1
Atom 158C    basis set group =>   1
Atom 159N    basis set group =>   4
Atom 160H    basis set group =>   2
Atom 161H    basis set group =>   2
Atom 162H    basis set group =>   2
Atom 163H    basis set group =>   2
Atom 164H    basis set group =>   2
Atom 165H    basis set group =>   2
Atom 166H    basis set group =>   2
Atom 167N    basis set group =>   4
Atom 168C    basis set group =>   1
Atom 169C    basis set group =>   1
Atom 170C    basis set group =>   1
Atom 171C    basis set group =>   1
Atom 172C    basis set group =>   1
Atom 173C    basis set group =>   1
Atom 174C    basis set group =>   1
Atom 175N    basis set group =>   4
Atom 176H    basis set group =>   2
Atom 177H    basis set group =>   2
Atom 178H    basis set group =>   2
Atom 179H    basis set group =>   2
Atom 180H    basis set group =>   2
Atom 181H    basis set group =>   2
Atom 182H    basis set group =>   2
Atom 183Zn   basis set group =>   3
Atom 184N    basis set group =>   4
Atom 185C    basis set group =>   1
Atom 186C    basis set group =>   1
Atom 187C    basis set group =>   1
Atom 188C    basis set group =>   1
Atom 189C    basis set group =>   1
Atom 190C    basis set group =>   1
Atom 191C    basis set group =>   1
Atom 192N    basis set group =>   4
Atom 193H    basis set group =>   2
Atom 194H    basis set group =>   2
Atom 195H    basis set group =>   2
Atom 196H    basis set group =>   2
Atom 197H    basis set group =>   2
Atom 198H    basis set group =>   2
Atom 199H    basis set group =>   2
Atom 200N    basis set group =>   4
Atom 201C    basis set group =>   1
Atom 202C    basis set group =>   1
Atom 203C    basis set group =>   1
Atom 204C    basis set group =>   1
Atom 205C    basis set group =>   1
Atom 206C    basis set group =>   1
Atom 207C    basis set group =>   1
Atom 208N    basis set group =>   4
Atom 209H    basis set group =>   2
Atom 210H    basis set group =>   2
Atom 211H    basis set group =>   2
Atom 212H    basis set group =>   2
Atom 213H    basis set group =>   2
Atom 214H    basis set group =>   2
Atom 215H    basis set group =>   2
Atom 216N    basis set group =>   4
Atom 217C    basis set group =>   1
Atom 218C    basis set group =>   1
Atom 219C    basis set group =>   1
Atom 220C    basis set group =>   1
Atom 221C    basis set group =>   1
Atom 222C    basis set group =>   1
Atom 223C    basis set group =>   1
Atom 224N    basis set group =>   4
Atom 225H    basis set group =>   2
Atom 226H    basis set group =>   2
Atom 227H    basis set group =>   2
Atom 228H    basis set group =>   2
Atom 229H    basis set group =>   2
Atom 230H    basis set group =>   2
Atom 231H    basis set group =>   2
---------------------------------
AUXILIARY/J BASIS SET INFORMATION
---------------------------------
There are 4 groups of distinct atoms

 Group   1 Type C   : 12s5p4d2f1g contracted to 6s4p3d1f1g pattern {711111/2111/211/2/1}
 Group   2 Type H   : 5s2p1d contracted to 3s1p1d pattern {311/2/1}
 Group   3 Type Zn  : 19s5p5d3f3g contracted to 8s5p5d2f3g pattern {121111111/11111/11111/21/111}
 Group   4 Type N   : 12s5p4d2f1g contracted to 6s4p3d1f1g pattern {711111/2111/211/2/1}

Atom   0C    basis set group =>   1
Atom   1C    basis set group =>   1
Atom   2C    basis set group =>   1
Atom   3C    basis set group =>   1
Atom   4C    basis set group =>   1
Atom   5C    basis set group =>   1
Atom   6H    basis set group =>   2
Atom   7H    basis set group =>   2
Atom   8H    basis set group =>   2
Atom   9C    basis set group =>   1
Atom  10C    basis set group =>   1
Atom  11C    basis set group =>   1
Atom  12C    basis set group =>   1
Atom  13C    basis set group =>   1
Atom  14C    basis set group =>   1
Atom  15H    basis set group =>   2
Atom  16H    basis set group =>   2
Atom  17H    basis set group =>   2
Atom  18C    basis set group =>   1
Atom  19C    basis set group =>   1
Atom  20C    basis set group =>   1
Atom  21C    basis set group =>   1
Atom  22C    basis set group =>   1
Atom  23C    basis set group =>   1
Atom  24H    basis set group =>   2
Atom  25H    basis set group =>   2
Atom  26H    basis set group =>   2
Atom  27C    basis set group =>   1
Atom  28C    basis set group =>   1
Atom  29C    basis set group =>   1
Atom  30C    basis set group =>   1
Atom  31C    basis set group =>   1
Atom  32C    basis set group =>   1
Atom  33H    basis set group =>   2
Atom  34H    basis set group =>   2
Atom  35H    basis set group =>   2
Atom  36Zn   basis set group =>   3
Atom  37N    basis set group =>   4
Atom  38C    basis set group =>   1
Atom  39C    basis set group =>   1
Atom  40C    basis set group =>   1
Atom  41C    basis set group =>   1
Atom  42C    basis set group =>   1
Atom  43C    basis set group =>   1
Atom  44C    basis set group =>   1
[...]
130 H      0.8014     1.0000     0.1986     0.9507     0.9507     0.0000
131 H      0.7914     1.0000     0.2086     0.9472     0.9472    -0.0000
132 H      0.7877     1.0000     0.2123     0.9458     0.9458    -0.0000
133 H      0.8494     1.0000     0.1506     0.9622     0.9622    -0.0000
134 Zn    29.3518    30.0000     0.6482     2.3163     2.3163    -0.0000
135 N      6.9276     7.0000     0.0724     2.9939     2.9939     0.0000
136 C      6.2664     6.0000    -0.2664     3.8648     3.8648    -0.0000
137 C      5.8151     6.0000     0.1849     3.5236     3.5236    -0.0000
138 C      6.1053     6.0000    -0.1053     3.7576     3.7576    -0.0000
139 C      6.1368     6.0000    -0.1368     3.8768     3.8768     0.0000
140 C      6.0157     6.0000    -0.0157     3.7307     3.7307     0.0000
141 C      5.8973     6.0000     0.1027     3.6623     3.6623     0.0000
142 C      6.5365     6.0000    -0.5365     3.6686     3.6686    -0.0000
143 N      7.0157     7.0000    -0.0157     3.1588     3.1588    -0.0000
144 H      0.8461     1.0000     0.1539     0.9674     0.9674    -0.0000
145 H      0.8303     1.0000     0.1697     0.9614     0.9614    -0.0000
146 H      0.8059     1.0000     0.1941     0.9530     0.9530     0.0000
147 H      0.8020     1.0000     0.1980     0.9510     0.9510     0.0000
148 H      0.7895     1.0000     0.2105     0.9461     0.9461     0.0000
149 H      0.7874     1.0000     0.2126     0.9459     0.9459    -0.0000
150 H      0.8496     1.0000     0.1504     0.9618     0.9618     0.0000
151 N      6.9210     7.0000     0.0790     3.0034     3.0034     0.0000
152 C      6.2382     6.0000    -0.2382     3.9370     3.9370    -0.0000
153 C      5.8799     6.0000     0.1201     3.6181     3.6181    -0.0000
154 C      6.0800     6.0000    -0.0800     3.7378     3.7378    -0.0000
155 C      6.1403     6.0000    -0.1403     3.8707     3.8707    -0.0000
156 C      6.0397     6.0000    -0.0397     3.7492     3.7492    -0.0000
157 C      5.8960     6.0000     0.1040     3.6636     3.6636    -0.0000
158 C      6.5391     6.0000    -0.5391     3.7144     3.7144     0.0000
159 N      7.0327     7.0000    -0.0327     3.0253     3.0253     0.0000
160 H      0.8409     1.0000     0.1591     0.9681     0.9681    -0.0000
161 H      0.8219     1.0000     0.1781     0.9593     0.9593    -0.0000
162 H      0.8028     1.0000     0.1972     0.9519     0.9519     0.0000
163 H      0.7994     1.0000     0.2006     0.9500     0.9500     0.0000
164 H      0.8411     1.0000     0.1589     0.9588     0.9588    -0.0000
165 H      0.7979     1.0000     0.2021     0.9496     0.9496     0.0000
166 H      0.7880     1.0000     0.2120     0.9432     0.9432     0.0000
167 N      6.9436     7.0000     0.0564     2.9541     2.9541    -0.0000
168 C      6.1487     6.0000    -0.1487     3.9162     3.9162    -0.0000
169 C      5.8216     6.0000     0.1784     3.5900     3.5900     0.0000
170 C      6.1298     6.0000    -0.1298     3.7448     3.7448    -0.0000
171 C      6.1274     6.0000    -0.1274     3.8541     3.8541    -0.0000
172 C      6.0512     6.0000    -0.0512     3.7410     3.7410     0.0000
173 C      5.8640     6.0000     0.1360     3.6798     3.6798     0.0000
174 C      6.5439     6.0000    -0.5439     3.7868     3.7868     0.0000
175 N      7.0650     7.0000    -0.0650     2.9816     2.9816    -0.0000
176 H      0.8394     1.0000     0.1606     0.9665     0.9665    -0.0000
177 H      0.8192     1.0000     0.1808     0.9584     0.9584    -0.0000
178 H      0.8019     1.0000     0.1981     0.9515     0.9515    -0.0000
179 H      0.8025     1.0000     0.1975     0.9518     0.9518     0.0000
180 H      0.8377     1.0000     0.1623     0.9535     0.9535    -0.0000
181 H      0.8034     1.0000     0.1966     0.9535     0.9535     0.0000
182 H      0.8046     1.0000     0.1954     0.9485     0.9485    -0.0000
183 Zn    29.3414    30.0000     0.6586     2.2957     2.2957    -0.0000
184 N      6.9549     7.0000     0.0451     3.0168     3.0168     0.0000
185 C      6.2476     6.0000    -0.2476     3.8716     3.8716    -0.0000
186 C      5.8378     6.0000     0.1622     3.5639     3.5639    -0.0000
187 C      6.0949     6.0000    -0.0949     3.7549     3.7549    -0.0000
188 C      6.1445     6.0000    -0.1445     3.8893     3.8893    -0.0000
189 C      6.0146     6.0000    -0.0146     3.7267     3.7267    -0.0000
190 C      5.9009     6.0000     0.0991     3.6795     3.6795    -0.0000
191 C      6.5296     6.0000    -0.5296     3.6809     3.6809     0.0000
192 N      7.0056     7.0000    -0.0056     3.1445     3.1445     0.0000
193 H      0.8483     1.0000     0.1517     0.9682     0.9682     0.0000
194 H      0.8307     1.0000     0.1693     0.9604     0.9604     0.0000
195 H      0.8053     1.0000     0.1947     0.9529     0.9529    -0.0000
196 H      0.8014     1.0000     0.1986     0.9508     0.9508    -0.0000
197 H      0.7886     1.0000     0.2114     0.9453     0.9453     0.0000
198 H      0.7907     1.0000     0.2093     0.9476     0.9476     0.0000
199 H      0.8482     1.0000     0.1518     0.9609     0.9609     0.0000
200 N      6.9188     7.0000     0.0812     3.0158     3.0158     0.0000
201 C      6.2324     6.0000    -0.2324     3.9262     3.9262    -0.0000
202 C      5.8803     6.0000     0.1197     3.6286     3.6286    -0.0000
203 C      6.0812     6.0000    -0.0812     3.7368     3.7368    -0.0000
204 C      6.1365     6.0000    -0.1365     3.8753     3.8753     0.0000
205 C      6.0404     6.0000    -0.0404     3.7562     3.7562     0.0000
206 C      5.8939     6.0000     0.1061     3.6732     3.6732     0.0000
207 C      6.5335     6.0000    -0.5335     3.7229     3.7229     0.0000
208 N      7.0400     7.0000    -0.0400     3.0247     3.0247     0.0000
209 H      0.8419     1.0000     0.1581     0.9681     0.9681    -0.0000
210 H      0.8220     1.0000     0.1780     0.9591     0.9591     0.0000
211 H      0.8024     1.0000     0.1976     0.9517     0.9517     0.0000
212 H      0.7995     1.0000     0.2005     0.9500     0.9500     0.0000
213 H      0.8423     1.0000     0.1577     0.9573     0.9573     0.0000
214 H      0.7984     1.0000     0.2016     0.9503     0.9503     0.0000
215 H      0.7889     1.0000     0.2111     0.9438     0.9438     0.0000
216 N      6.9577     7.0000     0.0423     2.9476     2.9476     0.0000
217 C      6.1513     6.0000    -0.1513     3.9419     3.9419    -0.0000
218 C      5.8180     6.0000     0.1820     3.5893     3.5893     0.0000
219 C      6.1241     6.0000    -0.1241     3.7479     3.7479     0.0000
220 C      6.1293     6.0000    -0.1293     3.8566     3.8566    -0.0000
221 C      6.0484     6.0000    -0.0484     3.7426     3.7426    -0.0000
222 C      5.8686     6.0000     0.1314     3.6929     3.6929     0.0000
223 C      6.5412     6.0000    -0.5412     3.7905     3.7905     0.0000
224 N      7.0631     7.0000    -0.0631     2.9683     2.9683     0.0000
225 H      0.8411     1.0000     0.1589     0.9670     0.9670    -0.0000
226 H      0.8191     1.0000     0.1809     0.9582     0.9582     0.0000
227 H      0.8021     1.0000     0.1979     0.9516     0.9516    -0.0000
228 H      0.8025     1.0000     0.1975     0.9517     0.9517    -0.0000
229 H      0.8345     1.0000     0.1655     0.9524     0.9524     0.0000
230 H      0.8048     1.0000     0.1952     0.9540     0.9540     0.0000
231 H      0.8090     1.0000     0.1910     0.9495     0.9495     0.0000

  Mayer bond orders larger than 0.100000
B(  0-C ,  1-C ) :   1.5882 B(  0-C ,  5-C ) :   1.1549 B(  0-C ,  6-H ) :   0.1182 
B(  0-C , 37-N ) :   0.7379 B(  1-C ,  2-C ) :   1.1331 B(  1-C ,  6-H ) :   0.8338 
B(  2-C ,  3-C ) :   1.5071 B(  2-C ,135-N ) :   0.7414 B(  3-C ,  4-C ) :   1.1947 
B(  3-C ,  7-H ) :   0.8540 B(  4-C ,  5-C ) :   1.5099 B(  4-C , 86-N ) :   0.7203 
B(  5-C ,  8-H ) :   0.8555 B(  9-C , 10-C ) :   1.4708 B(  9-C , 14-C ) :   1.1205 
B(  9-C , 69-N ) :   0.7493 B( 10-C , 11-C ) :   1.2267 B( 10-C , 15-H ) :   0.8675 
B( 11-C , 12-C ) :   1.6193 B( 11-C , 16-H ) :   0.1151 B( 11-C ,102-N ) :   0.7084 
B( 12-C , 13-C ) :   1.1273 B( 12-C , 16-H ) :   0.8547 B( 13-C , 14-C ) :   1.5830 
B( 13-C , 17-H ) :   0.1236 B( 13-C ,184-N ) :   0.7434 B( 14-C , 17-H ) :   0.8284 
B( 18-C , 19-C ) :   1.5562 B( 18-C , 23-C ) :   1.2360 B( 18-C , 53-N ) :   0.6950 
B( 19-C , 20-C ) :   1.1524 B( 19-C , 24-H ) :   0.8648 B( 20-C , 21-C ) :   1.4795 
B( 20-C ,200-N ) :   0.7082 B( 21-C , 22-C ) :   1.1799 B( 21-C , 25-H ) :   0.8615 
B( 22-C , 23-C ) :   1.5224 B( 22-C ,167-N ) :   0.7116 B( 23-C , 26-H ) :   0.8799 
B( 27-C , 28-C ) :   1.5154 B( 27-C , 32-C ) :   1.1326 B( 27-C ,118-N ) :   0.7383 
B( 28-C , 29-C ) :   1.1812 B( 28-C , 33-H ) :   0.8474 B( 29-C , 30-C ) :   1.4633 
B( 29-C ,151-N ) :   0.7250 B( 30-C , 31-C ) :   1.1923 B( 30-C , 34-H ) :   0.8747 
B( 31-C , 32-C ) :   1.6330 B( 31-C , 35-H ) :   0.1193 B( 31-C ,216-N ) :   0.7116 
B( 32-C , 35-H ) :   0.8483 B( 36-Zn, 37-N ) :   0.3608 B( 36-Zn, 45-N ) :   0.3036 
B( 36-Zn, 53-N ) :   0.3103 B( 36-Zn, 61-N ) :   0.3199 B( 36-Zn, 69-N ) :   0.3622 
B( 36-Zn, 77-N ) :   0.4433 B( 37-N , 38-C ) :   1.8392 B( 37-N , 39-C ) :  -0.1557 
B( 38-C , 39-C ) :   0.9640 B( 38-C , 46-H ) :   0.9204 B( 39-C , 40-C ) :   1.4040 
B( 39-C , 45-N ) :   1.1992 B( 40-C , 41-C ) :   1.2952 B( 40-C , 47-H ) :   0.9127 
B( 41-C , 42-C ) :   1.4317 B( 41-C , 48-H ) :   0.9676 B( 42-C , 43-C ) :   1.2862 
B( 42-C , 49-H ) :   0.9122 B( 43-C , 44-C ) :   0.8610 B( 43-C , 45-N ) :   1.3644 
B( 44-C , 50-H ) :   0.9680 B( 44-C , 51-H ) :   0.9380 B( 44-C , 52-H ) :   0.9381 
B( 53-N , 54-C ) :   1.8222 B( 53-N , 55-C ) :  -0.1117 B( 54-C , 55-C ) :   0.9932 
B( 54-C , 62-H ) :   0.9141 B( 55-C , 56-C ) :   1.3824 B( 55-C , 61-N ) :   1.2042 
B( 56-C , 57-C ) :   1.2929 B( 56-C , 63-H ) :   0.9188 B( 57-C , 58-C ) :   1.4141 
B( 57-C , 64-H ) :   0.9679 B( 58-C , 59-C ) :   1.2845 B( 58-C , 65-H ) :   0.9177 
B( 59-C , 60-C ) :   0.8687 B( 59-C , 61-N ) :   1.3581 B( 60-C , 66-H ) :   0.9334 
B( 60-C , 67-H ) :   0.9357 B( 60-C , 68-H ) :   0.9635 B( 69-N , 70-C ) :   1.7863 
B( 69-N , 71-C ) :  -0.1123 B( 70-C , 71-C ) :   0.8579 B( 70-C , 78-H ) :   0.9483 
B( 71-C , 72-C ) :   1.3850 B( 71-C , 77-N ) :   1.2805 B( 72-C , 73-C ) :   1.3110 
B( 72-C , 79-H ) :   0.9111 B( 73-C , 74-C ) :   1.4223 B( 73-C , 80-H ) :   0.9650 
B( 74-C , 75-C ) :   1.2993 B( 74-C , 81-H ) :   0.9125 B( 75-C , 76-C ) :   0.8441 
B( 75-C , 77-N ) :   1.3294 B( 76-C , 82-H ) :   0.9564 B( 76-C , 83-H ) :   0.9355 
B( 76-C , 84-H ) :   0.9436 B( 85-Zn, 86-N ) :   0.3694 B( 85-Zn, 94-N ) :   0.2901 
B( 85-Zn,102-N ) :   0.2930 B( 85-Zn,110-N ) :   0.3301 B( 85-Zn,118-N ) :   0.3707 
B( 85-Zn,126-N ) :   0.4317 B( 86-N , 87-C ) :   1.8358 B( 86-N , 88-C ) :  -0.1520 
B( 87-C , 88-C ) :   0.9604 B( 87-C , 95-H ) :   0.9208 B( 88-C , 89-C ) :   1.4086 
B( 88-C , 94-N ) :   1.2010 B( 89-C , 90-C ) :   1.2926 B( 89-C , 96-H ) :   0.9129 
B( 90-C , 91-C ) :   1.4316 B( 90-C , 97-H ) :   0.9680 B( 91-C , 92-C ) :   1.2863 
B( 91-C , 98-H ) :   0.9118 B( 92-C , 93-C ) :   0.8631 B( 92-C , 94-N ) :   1.3689 
B( 93-C , 99-H ) :   0.9669 B( 93-C ,100-H ) :   0.9384 B( 93-C ,101-H ) :   0.9378 
B(102-N ,103-C ) :   1.8292 B(102-N ,104-C ) :  -0.1104 B(103-C ,104-C ) :   0.9958 
B(103-C ,111-H ) :   0.9147 B(104-C ,105-C ) :   1.3856 B(104-C ,110-N ) :   1.2025 
B(105-C ,106-C ) :   1.2934 B(105-C ,112-H ) :   0.9185 B(106-C ,107-C ) :   1.4115 
B(106-C ,113-H ) :   0.9684 B(107-C ,108-C ) :   1.2861 B(107-C ,114-H ) :   0.9184 
B(108-C ,109-C ) :   0.8643 B(108-C ,110-N ) :   1.3512 B(109-C ,115-H ) :   0.9340 
B(109-C ,116-H ) :   0.9358 B(109-C ,117-H ) :   0.9651 B(118-N ,119-C ) :   1.7865 
B(118-N ,120-C ) :  -0.1178 B(119-C ,120-C ) :   0.8611 B(119-C ,127-H ) :   0.9468 
B(120-C ,121-C ) :   1.3786 B(120-C ,126-N ) :   1.2809 B(121-C ,122-C ) :   1.3120 
B(121-C ,128-H ) :   0.9119 B(122-C ,123-C ) :   1.4230 B(122-C ,129-H ) :   0.9649 
B(123-C ,124-C ) :   1.2973 B(123-C ,130-H ) :   0.9118 B(124-C ,125-C ) :   0.8465 
B(124-C ,126-N ) :   1.3282 B(125-C ,131-H ) :   0.9353 B(125-C ,132-H ) :   0.9430 
B(125-C ,133-H ) :   0.9554 B(134-Zn,135-N ) :   0.3653 B(134-Zn,143-N ) :   0.4219 
B(134-Zn,151-N ) :   0.3732 B(134-Zn,159-N ) :   0.3161 B(134-Zn,167-N ) :   0.3157 
B(134-Zn,175-N ) :   0.3397 B(135-N ,136-C ) :   1.7893 B(135-N ,137-C ) :  -0.1174 
B(136-C ,137-C ) :   0.8606 B(136-C ,144-H ) :   0.9490 B(137-C ,138-C ) :   1.3842 
B(137-C ,143-N ) :   1.2747 B(138-C ,139-C ) :   1.3101 B(138-C ,145-H ) :   0.9111 
B(139-C ,140-C ) :   1.4236 B(139-C ,146-H ) :   0.9648 B(140-C ,141-C ) :   1.3019 
B(140-C ,147-H ) :   0.9118 B(141-C ,142-C ) :   0.8357 B(141-C ,143-N ) :   1.3341 
B(142-C ,148-H ) :   0.9378 B(142-C ,149-H ) :   0.9441 B(142-C ,150-H ) :   0.9581 
B(151-N ,152-C ) :   1.8238 B(151-N ,153-C ) :  -0.1431 B(152-C ,153-C ) :   0.9536 
B(152-C ,160-H ) :   0.9251 B(153-C ,154-C ) :   1.4078 B(153-C ,159-N ) :   1.2083 
B(154-C ,155-C ) :   1.2969 B(154-C ,161-H ) :   0.9121 B(155-C ,156-C ) :   1.4278 
B(155-C ,162-H ) :   0.9685 B(156-C ,157-C ) :   1.2889 B(156-C ,163-H ) :   0.9126 
B(157-C ,158-C ) :   0.8597 B(157-C ,159-N ) :   1.3614 B(158-C ,164-H ) :   0.9681 
B(158-C ,165-H ) :   0.9390 B(158-C ,166-H ) :   0.9373 B(167-N ,168-C ) :   1.8389 
B(167-N ,169-C ) :  -0.1179 B(168-C ,169-C ) :   0.9890 B(168-C ,176-H ) :   0.9131 
B(169-C ,170-C ) :   1.3759 B(169-C ,175-N ) :   1.2018 B(170-C ,171-C ) :   1.3097 
B(170-C ,177-H ) :   0.9196 B(171-C ,172-C ) :   1.4075 B(171-C ,178-H ) :   0.9687 
B(172-C ,173-C ) :   1.3109 B(172-C ,179-H ) :   0.9125 B(173-C ,174-C ) :   0.9367 
B(173-C ,175-N ) :   1.2482 B(174-C ,180-H ) :   0.9397 B(174-C ,181-H ) :   0.9397 
B(174-C ,182-H ) :   0.9279 B(183-Zn,184-N ) :   0.3525 B(183-Zn,192-N ) :   0.4286 
B(183-Zn,200-N ) :   0.3822 B(183-Zn,208-N ) :   0.3162 B(183-Zn,216-N ) :   0.3026 
B(183-Zn,224-N ) :   0.3393 B(184-N ,185-C ) :   1.8044 B(184-N ,186-C ) :  -0.1206 
B(185-C ,186-C ) :   0.8848 B(185-C ,193-H ) :   0.9405 B(186-C ,187-C ) :   1.3784 
B(186-C ,192-N ) :   1.2781 B(187-C ,188-C ) :   1.3103 B(187-C ,194-H ) :   0.9122 
B(188-C ,189-C ) :   1.4238 B(188-C ,195-H ) :   0.9655 B(189-C ,190-C ) :   1.3005 
B(189-C ,196-H ) :   0.9114 B(190-C ,191-C ) :   0.8543 B(190-C ,192-N ) :   1.3194 
B(191-C ,197-H ) :   0.9371 B(191-C ,198-H ) :   0.9429 B(191-C ,199-H ) :   0.9552 
B(200-N ,201-C ) :   1.8263 B(200-N ,202-C ) :  -0.1456 B(201-C ,202-C ) :   0.9556 
B(201-C ,209-H ) :   0.9238 B(202-C ,203-C ) :   1.4033 B(202-C ,208-N ) :   1.2171 
B(203-C ,204-C ) :   1.2991 B(203-C ,210-H ) :   0.9121 B(204-C ,205-C ) :   1.4299 
B(204-C ,211-H ) :   0.9679 B(205-C ,206-C ) :   1.2903 B(205-C ,212-H ) :   0.9118 
B(206-C ,207-C ) :   0.8728 B(206-C ,208-N ) :   1.3524 B(207-C ,213-H ) :   0.9633 
B(207-C ,214-H ) :   0.9391 B(207-C ,215-H ) :   0.9372 B(216-N ,217-C ) :   1.8406 
B(216-N ,218-C ) :  -0.1157 B(217-C ,218-C ) :   0.9987 B(217-C ,225-H ) :   0.9127 
B(218-C ,219-C ) :   1.3768 B(218-C ,224-N ) :   1.1950 B(219-C ,220-C ) :   1.3127 
B(219-C ,226-H ) :   0.9193 B(220-C ,221-C ) :   1.4057 B(220-C ,227-H ) :   0.9689 
B(221-C ,222-C ) :   1.3164 B(221-C ,228-H ) :   0.9110 B(222-C ,223-C ) :   0.9450 
B(222-C ,224-N ) :   1.2391 B(223-C ,229-H ) :   0.9387 B(223-C ,230-H ) :   0.9402 
B(223-C ,231-H ) :   0.9256 

-------
TIMINGS
-------

Total SCF time: 0 days 0 hours 7 min 16 sec 

Total time                  ....     436.905 sec
Sum of individual times     ....     415.470 sec  ( 95.1%)

Fock matrix formation       ....     285.612 sec  ( 65.4%)
  Split-RI-J                ....     154.957 sec  ( 54.3% of F)
  XC integration            ....     118.865 sec  ( 41.6% of F)
    Basis function eval.    ....      10.459 sec  (  8.8% of XC)
    Density eval.           ....      73.453 sec  ( 61.8% of XC)
    XC-Functional eval.     ....       2.311 sec  (  1.9% of XC)
    XC-Potential eval.      ....      20.829 sec  ( 17.5% of XC)
Diagonalization             ....      41.225 sec  (  9.4%)
Density matrix formation    ....       3.795 sec  (  0.9%)
Population analysis         ....      21.369 sec  (  4.9%)
Initial guess               ....       8.443 sec  (  1.9%)
Orbital Transformation      ....       0.000 sec  (  0.0%)
Orbital Orthonormalization  ....       0.000 sec  (  0.0%)
DIIS solution               ....      38.668 sec  (  8.9%)
Grid generation             ....      16.359 sec  (  3.7%)

Maximum memory used throughout the entire SCF-calculation: 1464.4 MB


-------------------------------------------------------------------------------
                          DFT DISPERSION CORRECTION                            
                                                                               
                                 DFTD4 V2.5                                    
-------------------------------------------------------------------------------
The R2SCAN3C composite method is recognized
Using three-body term ABC
Active option DFTDOPT                   ...         5   

Starting D4
-------------------------   ----------------
Dispersion correction           -0.192660756
-------------------------   ----------------

NOTIFICATION: Different basis set in ORCA and otool_gcp:
ORCA: 3240  gCP: 3232 
If you are NOT using ECPs, check your basis set inputs!
------------------   -----------------
gCP correction             0.131749763
------------------   -----------------

-------------------------   --------------------
FINAL SINGLE POINT ENERGY    -12600.822803907611
-------------------------   --------------------


                            ***************************************
                            *     ORCA property calculations      *
                            ***************************************

                                    ---------------------
                                    Active property flags
                                    ---------------------
   (+) Dipole Moment


------------------------------------------------------------------------------
                       ORCA ELECTRIC PROPERTIES CALCULATION
------------------------------------------------------------------------------

Dipole Moment Calculation                       ... on
Quadrupole Moment Calculation                   ... off
Polarizability Calculation                      ... off
GBWName                                         ... Tetrahedron_l1_ald2_ORCA_DFT.gbw
Electron density                                ... Tetrahedron_l1_ald2_ORCA_DFT.scfp
The origin for moment calculation is the CENTER OF MASS  = (-0.630760, -1.328482 -0.857573)

-------------
DIPOLE MOMENT
-------------
                                X             Y             Z
Electronic contribution:      0.63122       2.61943       0.05482
Nuclear contribution   :     -0.49710      -2.60351      -0.00771
                        -----------------------------------------
Total Dipole Moment    :      0.13412       0.01592       0.04711
                        -----------------------------------------
Magnitude (a.u.)       :      0.14304
Magnitude (Debye)      :      0.36358



--------------------
Rotational spectrum 
--------------------
 
Rotational constants in cm-1:     0.000333     0.000327     0.000318 
Rotational constants in MHz :     9.969473     9.798574     9.527719 

 Dipole components along the rotational axes: 
x,y,z [a.u.] :     0.076713     0.024585     0.118199 
x,y,z [Debye]:     0.194989     0.062491     0.300439 

 

Timings for individual modules:

Sum of individual times         ...      451.001 sec (=   7.517 min)
GTO integral calculation        ...       11.523 sec (=   0.192 min)   2.6 %
SCF iterations                  ...      439.478 sec (=   7.325 min)  97.4 %
                             ****ORCA TERMINATED NORMALLY****
TOTAL RUN TIME: 0 days 0 hours 7 minutes 40 seconds 14 msec
