
                                 *****************
                                 * O   R   C   A *
                                 *****************

                                            #,                                       
                                            ###                                      
                                            ####                                     
                                            #####                                    
                                            ######                                   
                                           ########,                                 
                                     ,,################,,,,,                         
                               ,,#################################,,                 
                          ,,##########################################,,             
                       ,#########################################, ''#####,          
                    ,#############################################,,   '####,        
                  ,##################################################,,,,####,       
                ,###########''''           ''''###############################       
              ,#####''   ,,,,##########,,,,          '''####'''          '####       
            ,##' ,,,,###########################,,,                        '##       
           ' ,,###''''                  '''############,,,                           
         ,,##''                                '''############,,,,        ,,,,,,###''
      ,#''                                            '''#######################'''  
     '                                                          ''''####''''         
             ,#######,   #######,   ,#######,      ##                                
            ,#'     '#,  ##    ##  ,#'     '#,    #''#        ######   ,####,        
            ##       ##  ##   ,#'  ##            #'  '#       #        #'  '#        
            ##       ##  #######   ##           ,######,      #####,   #    #        
            '#,     ,#'  ##    ##  '#,     ,#' ,#      #,         ##   #,  ,#        
             '#######'   ##     ##  '#######'  #'      '#     #####' # '####'        



                  #######################################################
                  #                        -***-                        #
                  #          Department of theory and spectroscopy      #
                  #    Directorship and core code : Frank Neese         #
                  #        Max Planck Institute fuer Kohlenforschung    #
                  #                Kaiser Wilhelm Platz 1               #
                  #                 D-45470 Muelheim/Ruhr               #
                  #                      Germany                        #
                  #                                                     #
                  #                  All rights reserved                #
                  #                        -***-                        #
                  #######################################################


                         Program Version 5.0.4 -  RELEASE  -


 With contributions from (in alphabetic order):
   Daniel Aravena         : Magnetic Suceptibility
   Michael Atanasov       : Ab Initio Ligand Field Theory (pilot matlab implementation)
   Alexander A. Auer      : GIAO ZORA, VPT2 properties, NMR spectrum
   Ute Becker             : Parallelization
   Giovanni Bistoni       : ED, misc. LED, open-shell LED, HFLD
   Martin Brehm           : Molecular dynamics
   Dmytro Bykov           : SCF Hessian
   Vijay G. Chilkuri      : MRCI spin determinant printing, contributions to CSF-ICE
   Dipayan Datta          : RHF DLPNO-CCSD density
   Achintya Kumar Dutta   : EOM-CC, STEOM-CC
   Dmitry Ganyushin       : Spin-Orbit,Spin-Spin,Magnetic field MRCI
   Miquel Garcia          : C-PCM and meta-GGA Hessian, CC/C-PCM, Gaussian charge scheme
   Yang Guo               : DLPNO-NEVPT2, F12-NEVPT2, CIM, IAO-localization
   Andreas Hansen         : Spin unrestricted coupled pair/coupled cluster methods
   Benjamin Helmich-Paris : MC-RPA, TRAH-SCF, COSX integrals
   Lee Huntington         : MR-EOM, pCC
   Robert Izsak           : Overlap fitted RIJCOSX, COSX-SCS-MP3, EOM
   Marcus Kettner         : VPT2
   Christian Kollmar      : KDIIS, OOCD, Brueckner-CCSD(T), CCSD density, CASPT2, CASPT2-K
   Simone Kossmann        : Meta GGA functionals, TD-DFT gradient, OOMP2, MP2 Hessian
   Martin Krupicka        : Initial AUTO-CI
   Lucas Lang             : DCDCAS
   Marvin Lechner         : AUTO-CI (C++ implementation), FIC-MRCC
   Dagmar Lenk            : GEPOL surface, SMD
   Dimitrios Liakos       : Extrapolation schemes; Compound Job, initial MDCI parallelization
   Dimitrios Manganas     : Further ROCIS development; embedding schemes
   Dimitrios Pantazis     : SARC Basis sets
   Anastasios Papadopoulos: AUTO-CI, single reference methods and gradients
   Taras Petrenko         : DFT Hessian,TD-DFT gradient, ASA, ECA, R-Raman, ABS, FL, XAS/XES, NRVS
   Peter Pinski           : DLPNO-MP2, DLPNO-MP2 Gradient
   Christoph Reimann      : Effective Core Potentials
   Marius Retegan         : Local ZFS, SOC
   Christoph Riplinger    : Optimizer, TS searches, QM/MM, DLPNO-CCSD(T), (RO)-DLPNO pert. Triples
   Tobias Risthaus        : Range-separated hybrids, TD-DFT gradient, RPA, STAB
   Michael Roemelt        : Original ROCIS implementation
   Masaaki Saitow         : Open-shell DLPNO-CCSD energy and density
   Barbara Sandhoefer     : DKH picture change effects
   Avijit Sen             : IP-ROCIS
   Kantharuban Sivalingam : CASSCF convergence, NEVPT2, FIC-MRCI
   Bernardo de Souza      : ESD, SOC TD-DFT
   Georgi Stoychev        : AutoAux, RI-MP2 NMR, DLPNO-MP2 response
   Willem Van den Heuvel  : Paramagnetic NMR
   Boris Wezisla          : Elementary symmetry handling
   Frank Wennmohs         : Technical directorship


 We gratefully acknowledge several colleagues who have allowed us to
 interface, adapt or use parts of their codes:
   Stefan Grimme, W. Hujo, H. Kruse, P. Pracht,  : VdW corrections, initial TS optimization,
                  C. Bannwarth, S. Ehlert          DFT functionals, gCP, sTDA/sTD-DF
   Ed Valeev, F. Pavosevic, A. Kumar             : LibInt (2-el integral package), F12 methods
   Garnet Chan, S. Sharma, J. Yang, R. Olivares  : DMRG
   Ulf Ekstrom                                   : XCFun DFT Library
   Mihaly Kallay                                 : mrcc  (arbitrary order and MRCC methods)
   Jiri Pittner, Ondrej Demel                    : Mk-CCSD
   Frank Weinhold                                : gennbo (NPA and NBO analysis)
   Christopher J. Cramer and Donald G. Truhlar   : smd solvation model
   Lars Goerigk                                  : TD-DFT with DH, B97 family of functionals
   V. Asgeirsson, H. Jonsson                     : NEB implementation
   FAccTs GmbH                                   : IRC, NEB, NEB-TS, DLPNO-Multilevel, CI-OPT
                                                   MM, QMMM, 2- and 3-layer-ONIOM, Crystal-QMMM,
                                                   LR-CPCM, SF, NACMEs, symmetry and pop. for TD-DFT,
                                                   nearIR, NL-DFT gradient (VV10), updates on ESD,
                                                   ML-optimized integration grids
   S Lehtola, MJT Oliveira, MAL Marques          : LibXC Library
   Liviu Ungur et al                             : ANISO software


 Your calculation uses the libint2 library for the computation of 2-el integrals
 For citations please refer to: http://libint.valeyev.net

 Your ORCA version has been built with support for libXC version: 5.1.0
 For citations please refer to: https://tddft.org/programs/libxc/

 This ORCA versions uses:
   CBLAS   interface :  Fast vector & matrix operations
   LAPACKE interface :  Fast linear algebra routines
   SCALAPACK package :  Parallel linear algebra routines
   Shared memory     :  Shared parallel matrices
   BLAS/LAPACK       :  OpenBLAS 0.3.15  USE64BITINT DYNAMIC_ARCH NO_AFFINITY Prescott SINGLE_THREADED
        Core in use  :  Prescott
   Copyright (c) 2011-2014, The OpenBLAS Project




***************************************
The coordinates will be read from file: /rds/user/pcpt3/hpc-work/CageConstruction/GreenawayCollab/Tetrahedrons_ORCA_DFT/Tetrahedron_l0_ald4_ORCA_DFT/Tetrahedron_l0_ald4_XTB.xyz
***************************************


Your calculation utilizes the geometrical counterpoise correction gCP
Please cite in your paper:
H.Kruse, S. Grimme J.Chem.Phys., 136, (2012), 154101 
   

Your calculation utilizes the atom-pairwise dispersion correction
based on tight binding partial charges (D4)
Cite in your paper:
E.Caldeweyher, C.Bannwarth, S.Grimme, J.Chem.Phys., (2017), 147, 034112.
E.Caldeweyher, S.Ehlert, A.Hansen, H.Neugebauer, S.Grimme, J.Chem.Phys., (2018), in progress.
   

================================================================================

----- Orbital basis set information -----
Your calculation utilizes the basis: def2-mTZVPP
   Stefan Grimme, Andreas Hansen, Sebastian Ehlert, and Jan-Michael Mewes 
   J. Chem. Phys. 154, 000000 (2021). DOI: 10.1063/5.0040021

----- AuxJ basis set information -----
Your calculation utilizes the auxiliary basis: def2/J
   F. Weigend, Phys. Chem. Chem. Phys. 8, 1057 (2006).

================================================================================
                                        WARNINGS
                       Please study these warnings very carefully!
================================================================================

Using LibXC functional ID 497 : Re-regularized SCAN exchange by Furness et al
[ 1]  J. W. Furness, A. D. Kaplan, J. Ning, J. P. Perdew, and J. Sun, J. Phys. Chem. Lett. 11, 8208 (2020)
[ 2]  J. W. Furness, A. D. Kaplan, J. Ning, J. P. Perdew, and J. Sun, J. Phys. Chem. Lett. 11, 9248 (2020)
Using LibXC functional ID 498 : Re-regularized SCAN correlation by Furness et al
[ 1]  J. W. Furness, A. D. Kaplan, J. Ning, J. P. Perdew, and J. Sun, J. Phys. Chem. Lett. 11, 8208 (2020)
[ 2]  J. W. Furness, A. D. Kaplan, J. Ning, J. P. Perdew, and J. Sun, J. Phys. Chem. Lett. 11, 9248 (2020)
Using LibXC functional ID 497 : Re-regularized SCAN exchange by Furness et al
[ 1]  J. W. Furness, A. D. Kaplan, J. Ning, J. P. Perdew, and J. Sun, J. Phys. Chem. Lett. 11, 8208 (2020)
[ 2]  J. W. Furness, A. D. Kaplan, J. Ning, J. P. Perdew, and J. Sun, J. Phys. Chem. Lett. 11, 9248 (2020)
Using LibXC functional ID 498 : Re-regularized SCAN correlation by Furness et al
[ 1]  J. W. Furness, A. D. Kaplan, J. Ning, J. P. Perdew, and J. Sun, J. Phys. Chem. Lett. 11, 8208 (2020)
[ 2]  J. W. Furness, A. D. Kaplan, J. Ning, J. P. Perdew, and J. Sun, J. Phys. Chem. Lett. 11, 9248 (2020)

INFO   : the flag for use of the SHARK integral package has been found!

================================================================================
                                       INPUT FILE
================================================================================
NAME = Tetrahedron_l0_ald4_ORCA_DFT.inp
|  1> ! r2SCAN-3c ENERGY TightSCF def2/J 
|  2> %PAL NPROCS 32 END 
|  3> %maxcore 5316 
|  4> 
|  5> *xyzfile 8 1 /rds/user/pcpt3/hpc-work/CageConstruction/GreenawayCollab/Tetrahedrons_ORCA_DFT/Tetrahedron_l0_ald4_ORCA_DFT/Tetrahedron_l0_ald4_XTB.xyz 
|  6> 
|  7>                          ****END OF INPUT****
================================================================================

                       ****************************
                       * Single Point Calculation *
                       ****************************

---------------------------------
CARTESIAN COORDINATES (ANGSTROEM)
---------------------------------
  C     -0.756400   -2.122600    6.651200
  C      0.295400   -3.011400    6.439600
  C      0.479300   -3.595200    5.201000
  C     -1.641700   -1.870700    5.602300
  C     -1.427600   -2.428100    4.359000
  C     -0.355000   -3.288600    4.124200
  C     -0.096600   -3.815100    2.772200
  C      1.211400   -3.972000    2.319300
  C      1.480700   -4.409300    1.024600
  C      2.866700   -4.506800    0.533200
  C      3.828200   -3.580100    0.936600
  C      5.113000   -3.614400    0.436000
  C      5.470400   -4.558500   -0.527400
  C      4.530200   -5.513500   -0.908700
  C      3.256600   -5.494500   -0.373200
  C      0.411900   -4.697300    0.178800
  C     -0.906600   -4.547000    0.603000
  C     -2.030800   -4.784200   -0.320200
  C     -1.917000   -4.463600   -1.673200
  C     -2.979800   -4.615100   -2.539100
  C     -4.217700   -5.054600   -2.068100
  C     -4.333100   -5.413500   -0.726800
  C     -3.251600   -5.294900    0.125000
  C     -1.145500   -4.108300    1.903700
  H      0.944300   -3.265100    7.264500
  H      1.273800   -4.314700    5.071700
  H     -2.465400   -1.189100    5.756700
  H     -2.094900   -2.171700    3.550300
  H      2.031300   -3.751300    2.985100
  H      3.562000   -2.804800    1.638900
  H      5.836100   -2.874000    0.745600
  H      4.819400   -6.289600   -1.601500
  H      2.557600   -6.269400   -0.649900
  H      0.610600   -5.043400   -0.823700
  H     -0.987300   -4.068100   -2.053100
  H     -2.876200   -4.339900   -3.578500
  H     -5.267900   -5.818800   -0.369100
  H     -3.351200   -5.620800    1.149500
  H     -2.163100   -3.994500    2.244000
  C     -0.767900    1.758700    6.600400
  C     -1.769700    2.709900    6.387900
  C     -2.382000    2.818000    5.152700
  C     -0.414800    0.912000    5.550800
  C     -1.024200    1.030800    4.319300
  C     -2.015400    1.984100    4.100200
  C     -2.658800    2.060900    2.769200
  C     -3.477800    1.022800    2.344600
  C     -4.061000    1.033000    1.078800
  C     -4.894200   -0.098100    0.638700
  C     -4.596900   -1.394800    1.058700
  C     -5.359400   -2.471300    0.657100
  C     -6.422900   -2.291400   -0.228200
  C     -6.735400   -0.999100   -0.647800
  C     -5.991200    0.077100   -0.206900
  C     -3.803000    2.112900    0.235000
  C     -2.974500    3.151200    0.640600
  C     -2.627600    4.255400   -0.283600
  C     -3.537200    5.251100   -0.627900
  C     -3.174800    6.275900   -1.482800
  C     -1.883600    6.330700   -2.014400
  C     -0.967300    5.344300   -1.652700
  C     -1.339700    4.318400   -0.809100
  C     -2.408200    3.123700    1.911000
  H     -2.097500    3.341600    7.199800
  H     -3.162700    3.549000    5.006700
  H      0.359800    0.180000    5.701000
  H     -0.724700    0.377800    3.512600
  H     -3.686500    0.214400    3.028900
  H     -3.743100   -1.568900    1.695500
  H     -5.103900   -3.468500    0.981600
  H     -7.584800   -0.845600   -1.295200
  H     -6.277200    1.072000   -0.510900
  H     -4.217700    2.129600   -0.762000
  H     -4.534200    5.229500   -0.214400
  H     -3.886000    7.056500   -1.708600
  H      0.028800    5.372900   -2.059400
  H     -0.621900    3.552300   -0.555000
  H     -1.766600    3.932400    2.228900
  C      2.650100   -0.033500    6.553300
  C      2.850400    1.336000    6.385800
  C      3.151900    1.850300    5.140400
  C      2.774300   -0.870700    5.443900
  C      3.032200   -0.341800    4.196400
  C      3.229200    1.027300    4.015000
  C      3.504700    1.569000    2.673300
  C      3.025500    2.819000    2.289000
  C      3.263400    3.327700    1.013700
  C      2.688800    4.617300    0.593500
  C      3.353300    5.457000   -0.302600
  C      2.759400    6.608200   -0.781300
  C      1.486700    6.976200   -0.350100
  C      0.848800    6.185700    0.607100
  C      1.433300    5.018000    1.051600
  C      4.010400    2.565600    0.115000
  C      4.485000    1.310900    0.472900
  C      5.212000    0.457000   -0.493200
  C      4.617200   -0.720800   -0.939500
  C      5.274800   -1.561800   -1.812800
  C      6.548500   -1.241400   -2.280300
  C      7.152200   -0.064100   -1.829600
  C      6.489100    0.771300   -0.949500
  C      4.227500    0.820000    1.746800
  H      2.801000    1.985500    7.246000
  H      3.349200    2.906700    5.044500
  H      2.612000   -1.931400    5.560800
  H      3.063300   -1.005000    3.345500
  H      2.457600    3.404500    2.995500
  H      4.356700    5.212600   -0.616900
  H      3.288400    7.252600   -1.467400
  H     -0.135200    6.465000    0.954400
  H      0.893900    4.394600    1.748700
  H      4.193300    2.931900   -0.884000
  H      3.624000   -0.978000   -0.600900
  H      4.795700   -2.461200   -2.160000
  H      8.158200    0.179900   -2.136600
  H      6.974900    1.669100   -0.598300
  H      4.631600   -0.142000    2.023600
  C     -5.236900   -1.741600   -3.859400
  C     -4.318900   -1.891700   -2.821000
  C     -3.035600   -1.401400   -2.943600
  C     -4.823400   -1.106700   -5.034000
  C     -3.533400   -0.623100   -5.152000
  C     -2.622000   -0.760100   -4.108600
  C     -1.224100   -0.285900   -4.215700
  C     -0.197100   -1.221500   -4.235800
  C      1.136400   -0.822300   -4.297200
  C      2.217200   -1.822200   -4.300200
  C      2.079600   -3.012900   -3.586900
  C      3.083700   -3.958200   -3.568800
  C      4.291000   -3.717700   -4.225800
  C      4.436100   -2.536300   -4.951700
  C      3.408300   -1.616000   -4.999500
  C      1.421300    0.540500   -4.323000
  C      0.407900    1.496400   -4.292300
  C      0.735400    2.932000   -4.267100
  C      1.874200    3.386000   -3.601300
  C      2.183200    4.729500   -3.548400
  C      1.330000    5.675000   -4.119200
  C      0.198700    5.230900   -4.802800
  C     -0.080300    3.881600   -4.886300
  C     -0.919000    1.068400   -4.249200
  H     -4.627900   -2.372000   -1.908700
  H     -2.343500   -1.512500   -2.121700
  H     -5.498800   -1.025600   -5.872500
  H     -3.224000   -0.148600   -6.070900
  H     -0.450200   -2.270900   -4.242600
  H      1.179400   -3.196300   -3.020300
  H      2.963300   -4.867100   -2.999200
  H      5.347700   -2.364200   -5.502700
  H      3.526100   -0.730600   -5.604700
  H      2.450800    0.860400   -4.367900
  H      2.519700    2.680700   -3.099900
  H      3.060400    5.062400   -3.015100
  H     -0.439500    5.951100   -5.290700
  H     -0.938100    3.558900   -5.455500
  H     -1.719800    1.791200   -4.202500
  Zn     0.471000   -0.142400    8.954600
  C     -4.934100   -0.448200   12.382400
  C     -3.682900   -0.296900   11.607800
  C     -2.628400    0.494600   12.070400
  C     -1.464300    0.598000   11.329000
  N     -1.274500   -0.024200   10.171200
  C     -2.275500   -0.789300    9.705800
  C     -2.043300   -1.480600    8.454900
  N     -0.903300   -1.473500    7.881900
  C     -3.479300   -0.942700   10.386100
  H     -5.709200   -0.946100   11.807600
  H     -5.299300    0.519700   12.721100
  H     -4.742500   -1.036800   13.280800
  H     -2.717200    1.022600   13.006900
  H     -0.646900    1.205300   11.690100
  H     -2.884700   -2.039400    8.043200
  H     -4.252800   -1.572400    9.973100
  C      3.695100   -4.655500   12.114000
  C      2.878700   -3.654900   11.392800
  C      1.647800   -3.220600   11.892000
  C      0.917300   -2.269500   11.200700
  N      1.322200   -1.726000   10.059300
  C      2.500000   -2.132000    9.555800
  C      2.919100   -1.520000    8.309900
  N      2.266500   -0.554500    7.792900
  C      3.292700   -3.085500   10.185700
  H      4.546700   -4.985100   11.526400
  H      3.091500   -5.518400   12.390800
  H      4.065300   -4.228100   13.047000
  H      1.266200   -3.623400   12.817100
  H     -0.034100   -1.929600   11.583800
  H      3.827800   -1.910100    7.849300
  H      4.234400   -3.377500    9.745800
  C      2.486800    4.839700   12.366100
  C      2.117300    3.649800   11.568500
  C      2.524300    2.366300   11.943600
  C      2.146800    1.272500   11.184100
  N      1.402600    1.365500   10.088800
  C      1.009800    2.590000    9.699700
  C      0.238200    2.671800    8.476100
  N     -0.084000    1.628100    7.813200
  C      1.346900    3.740200   10.406700
  H      2.064200    4.765400   13.368300
  H      2.137600    5.760300   11.908400
  H      3.567500    4.892000   12.493600
  H      3.129100    2.226100   12.825800
  H      2.455500    0.277600   11.472000
  H     -0.006500    3.674700    8.124600
  H      1.006600    4.704000   10.059000
  Zn    -7.264400   -4.079800   -2.795400
  C     -7.243600   -7.427000   -8.257400
  C     -7.285100   -6.592500   -7.036700
  C     -8.411800   -5.834000   -6.708300
  C     -8.423200   -5.079300   -5.548300
  N     -7.404400   -5.025800   -4.698100
  C     -6.309800   -5.745500   -4.994100
  C     -5.217300   -5.695700   -4.045000
  N     -5.327600   -5.106200   -2.918800
  C     -6.214600   -6.525800   -6.141900
  H     -6.245700   -7.806700   -8.455400
  H     -7.596200   -6.866800   -9.121600
  H     -7.917700   -8.277600   -8.145600
  H     -9.275400   -5.838300   -7.354600
  H     -9.296900   -4.497700   -5.291700
  H     -4.303000   -6.219300   -4.326800
  H     -5.314700   -7.090100   -6.334300
  C    -10.282400   -8.410300    0.795600
  C     -9.543000   -7.471100   -0.075800
  C     -9.438700   -7.682000   -1.453400
  C     -8.754300   -6.773700   -2.242600
  N     -8.172700   -5.681700   -1.761800
  C     -8.253900   -5.460400   -0.438900
  C     -7.610000   -4.260400    0.059000
  N     -7.112200   -3.396500   -0.735800
  C     -8.919100   -6.324900    0.423800
  H    -10.152100   -8.176500    1.847900
  H     -9.966600   -9.436100    0.611900
  H    -11.347400   -8.370900    0.563200
  H     -9.892800   -8.550500   -1.904000
  H     -8.672700   -6.931900   -3.308400
  H     -7.589500   -4.123800    1.141100
  H     -8.962100   -6.103400    1.479600
  C    -12.445000   -0.869500   -4.638100
  C    -11.278600   -1.612900   -4.113200
  C    -11.438100   -2.754800   -3.323000
  C    -10.325300   -3.436600   -2.862000
  N     -9.078900   -3.065100   -3.127600
  C     -8.898800   -1.962600   -3.874100
  C     -7.531000   -1.548800   -4.112200
  N     -6.537500   -2.217200   -3.665600
  C     -9.963900   -1.220400   -4.375500
  H    -12.147300    0.017400   -5.189200
  H    -13.108200   -0.578200   -3.824400
  H    -13.032400   -1.509700   -5.296700
  H    -12.426700   -3.107800   -3.074500
  H    -10.443500   -4.322200   -2.254200
  H     -7.397100   -0.608200   -4.647300
  H     -9.772600   -0.342600   -4.974200
  Zn     7.315500   -4.284200   -3.221900
  C     12.721200   -4.571700    0.201500
  C     11.507300   -4.445300   -0.634400
  C     11.587800   -4.287300   -2.020400
  C     10.430800   -4.191900   -2.773900
  N      9.210300   -4.242700   -2.252800
  C      9.108300   -4.392600   -0.922100
  C      7.770600   -4.472100   -0.373300
  N      6.737600   -4.529100   -1.119900
  C     10.220700   -4.490800   -0.092400
  H     12.493400   -4.500800    1.260900
  H     13.455100   -3.812700   -0.063300
  H     13.195900   -5.536800    0.017800
  H     12.550000   -4.243900   -2.506000
  H     10.493100   -4.075500   -3.846200
  H      7.691500   -4.517100    0.713600
  H     10.087400   -4.614700    0.971700
  C      7.063100  -10.448500   -4.862400
  C      7.153400   -9.043800   -4.407900
  C      8.297300   -8.554800   -3.771400
  C      8.355600   -7.229900   -3.374600
  N      7.365400   -6.366700   -3.565300
  C      6.252300   -6.814800   -4.170100
  C      5.188000   -5.850000   -4.367600
  N      5.355900   -4.614500   -4.101000
  C      6.111700   -8.131400   -4.595600
  H      6.064800  -10.700800   -5.207200
  H      7.352900  -11.131000   -4.065000
  H      7.763500  -10.618400   -5.681300
  H      9.137000   -9.207400   -3.590500
  H      9.238900   -6.847100   -2.883900
  H      4.248200   -6.227100   -4.773200
  H      5.200000   -8.445200   -5.081400
  C     10.487000   -2.232700   -8.348000
  C      9.689800   -2.762000   -7.219700
  C      9.438400   -4.130200   -7.084000
  C      8.702500   -4.593700   -6.007300
  N      8.203500   -3.800000   -5.067500
  C      8.420400   -2.479100   -5.182300
  C      7.828700   -1.627600   -4.170600
  N      7.155500   -2.106900   -3.195900
  C      9.149100   -1.932500   -6.234400
  H     10.547100   -1.148800   -8.330200
  H     10.059000   -2.550600   -9.298200
  H     11.497900   -2.639900   -8.316900
  H      9.819500   -4.826000   -7.814900
  H      8.508700   -5.651000   -5.895800
  H      7.945400   -0.553000   -4.315100
  H      9.301500   -0.864900   -6.285200
  Zn     0.332500    8.542500   -2.970000
  C     -3.227800   10.465600   -7.881200
  C     -2.325400    9.988400   -6.810400
  C     -1.000700   10.426200   -6.725600
  C     -0.188000    9.973400   -5.700800
  N     -0.596000    9.123100   -4.766700
  C     -1.861000    8.675900   -4.834600
  C     -2.268200    7.709900   -3.834300
  N     -1.472400    7.320000   -2.913900
  C     -2.741900    9.082100   -5.832300
  H     -2.793100   10.268400   -8.860600
  H     -3.351700   11.546600   -7.814000
  H     -4.206400    9.998300   -7.826400
  H     -0.611600   11.119200   -7.455000
  H      0.835700   10.312100   -5.627900
  H     -3.270300    7.293400   -3.942300
  H     -3.751500    8.699800   -5.846400
  C     -1.986600   13.308000    0.638500
  C     -1.523400   12.210900   -0.239200
  C     -1.724600   12.246700   -1.621500
  C     -1.260500   11.212100   -2.414900
  N     -0.616000   10.153600   -1.937200
  C     -0.412800   10.096900   -0.610800
  C      0.310900    8.947500   -0.109300
  N      0.849300    8.096100   -0.892700
  C     -0.851200   11.091800    0.257300
  H     -1.914100   13.044700    1.689500
  H     -3.013000   13.584600    0.404000
  H     -1.380300   14.198600    0.466300
  H     -2.237400   13.081400   -2.073200
  H     -1.410900   11.243200   -3.484400
  H      0.402400    8.862800    0.974200
  H     -0.659500   11.002800    1.316000
  C      5.734800   11.474100   -4.698300
  C      4.491900   10.829800   -4.220600
  C      3.523300   11.547300   -3.513500
  C      2.363100   10.917900   -3.096300
  N      2.101900    9.637700   -3.331000
  C      3.021600    8.925000   -4.003100
  C      2.712100    7.529600   -4.245800
  N      1.571700    7.041300   -3.950000
  C      4.214300    9.480500   -4.454100
  H      5.498900   12.209800   -5.468300
  H      6.432300   10.753200   -5.114200
  H      6.219700   12.020700   -3.890900
  H      3.676500   12.592200   -3.293700
  H      1.611300   11.469900   -2.550900
  H      3.492200    6.924600   -4.709800
  H      4.921300    8.869400   -4.994800

----------------------------
CARTESIAN COORDINATES (A.U.)
----------------------------
  NO LB      ZA    FRAG     MASS         X           Y           Z
   0 C     6.0000    0    12.011   -1.429389   -4.011133   12.568946
   1 C     6.0000    0    12.011    0.558225   -5.690721   12.169080
   2 C     6.0000    0    12.011    0.905746   -6.793943    9.828466
   3 C     6.0000    0    12.011   -3.102363   -3.535111   10.586813
   4 C     6.0000    0    12.011   -2.697773   -4.588444    8.237316
   5 C     6.0000    0    12.011   -0.670853   -6.214553    7.793609
   6 C     6.0000    0    12.011   -0.182548   -7.209494    5.238699
   7 C     6.0000    0    12.011    2.289214   -7.505992    4.382842
   8 C     6.0000    0    12.011    2.798117   -8.332369    1.936213
   9 C     6.0000    0    12.011    5.417278   -8.516618    1.007602
  10 C     6.0000    0    12.011    7.234250   -6.765409    1.769917
  11 C     6.0000    0    12.011    9.662170   -6.830226    0.823921
  12 C     6.0000    0    12.011   10.337558   -8.614317   -0.996642
  13 C     6.0000    0    12.011    8.560837  -10.419005   -1.717194
  14 C     6.0000    0    12.011    6.154082  -10.383100   -0.705246
  15 C     6.0000    0    12.011    0.778378   -8.876611    0.337883
  16 C     6.0000    0    12.011   -1.713226   -8.592585    1.139505
  17 C     6.0000    0    12.011   -3.837656   -9.040828   -0.605090
  18 C     6.0000    0    12.011   -3.622605   -8.434982   -3.161890
  19 C     6.0000    0    12.011   -5.631006   -8.721275   -4.798204
  20 C     6.0000    0    12.011   -7.970298   -9.551810   -3.908143
  21 C     6.0000    0    12.011   -8.188372  -10.230032   -1.373453
  22 C     6.0000    0    12.011   -6.144633  -10.005911    0.236216
  23 C     6.0000    0    12.011   -2.164681   -7.763562    3.597472
  24 H     1.0000    0     1.008    1.784468   -6.170145   13.727915
  25 H     1.0000    0     1.008    2.407133   -8.153601    9.584124
  26 H     1.0000    0     1.008   -4.658931   -2.247073   10.878586
  27 H     1.0000    0     1.008   -3.958787   -4.103918    6.709095
  28 H     1.0000    0     1.008    3.838601   -7.088930    5.641021
  29 H     1.0000    0     1.008    6.731204   -5.300304    3.097072
  30 H     1.0000    0     1.008   11.028631   -5.431073    1.408980
  31 H     1.0000    0     1.008    9.107346  -11.885621   -3.026396
  32 H     1.0000    0     1.008    4.833164  -11.847449   -1.228133
  33 H     1.0000    0     1.008    1.153867   -9.530645   -1.556567
  34 H     1.0000    0     1.008   -1.865727   -7.687595   -3.879797
  35 H     1.0000    0     1.008   -5.435230   -8.201222   -6.762385
  36 H     1.0000    0     1.008   -9.954888  -10.995938   -0.697498
  37 H     1.0000    0     1.008   -6.332850  -10.621773    2.172240
  38 H     1.0000    0     1.008   -4.087667   -7.548511    4.240545
  39 C     6.0000    0    12.011   -1.451121    3.323461   12.472948
  40 C     6.0000    0    12.011   -3.344248    5.120969   12.071382
  41 C     6.0000    0    12.011   -4.501328    5.325248    9.737192
  42 C     6.0000    0    12.011   -0.783858    1.723430   10.489492
  43 C     6.0000    0    12.011   -1.935458    1.947930    8.162294
  44 C     6.0000    0    12.011   -3.808554    3.749406    7.748255
  45 C     6.0000    0    12.011   -5.024404    3.894537    5.233030
  46 C     6.0000    0    12.011   -6.572090    1.932812    4.430652
  47 C     6.0000    0    12.011   -7.674178    1.952087    2.038637
  48 C     6.0000    0    12.011   -9.248698   -0.185382    1.206968
  49 C     6.0000    0    12.011   -8.686882   -2.635790    2.000653
  50 C     6.0000    0    12.011  -10.127798   -4.670080    1.241739
  51 C     6.0000    0    12.011  -12.137522   -4.330118   -0.431236
  52 C     6.0000    0    12.011  -12.728061   -1.888025   -1.224165
  53 C     6.0000    0    12.011  -11.321727    0.145698   -0.390984
  54 C     6.0000    0    12.011   -7.186628    3.992802    0.444086
  55 C     6.0000    0    12.011   -5.620990    5.954905    1.210559
  56 C     6.0000    0    12.011   -4.965444    8.041541   -0.535926
  57 C     6.0000    0    12.011   -6.684339    9.923141   -1.186559
  58 C     6.0000    0    12.011   -5.999503   11.859732   -2.802086
  59 C     6.0000    0    12.011   -3.559488   11.963289   -3.806664
  60 C     6.0000    0    12.011   -1.827932   10.099263   -3.123150
  61 C     6.0000    0    12.011   -2.531666    8.160593   -1.528977
  62 C     6.0000    0    12.011   -4.550838    5.902938    3.611267
  63 H     1.0000    0     1.008   -3.963701    6.314709   13.605650
  64 H     1.0000    0     1.008   -5.976637    6.706638    9.461292
  65 H     1.0000    0     1.008    0.679923    0.340151   10.773329
  66 H     1.0000    0     1.008   -1.369485    0.713939    6.637852
  67 H     1.0000    0     1.008   -6.966475    0.405157    5.723791
  68 H     1.0000    0     1.008   -7.073434   -2.964791    3.204031
  69 H     1.0000    0     1.008   -9.644973   -6.554515    1.854955
  70 H     1.0000    0     1.008  -14.333195   -1.597952   -2.447573
  71 H     1.0000    0     1.008  -11.862189    2.025786   -0.965461
  72 H     1.0000    0     1.008   -7.970298    4.024361   -1.439971
  73 H     1.0000    0     1.008   -8.568396    9.882323   -0.405157
  74 H     1.0000    0     1.008   -7.343476   13.334852   -3.228786
  75 H     1.0000    0     1.008    0.054424   10.153310   -3.891702
  76 H     1.0000    0     1.008   -1.175221    6.712874   -1.048798
  77 H     1.0000    0     1.008   -3.338390    7.431159    4.212011
  78 C     6.0000    0    12.011    5.007963   -0.063306   12.383942
  79 C     6.0000    0    12.011    5.386475    2.524674   12.067413
  80 C     6.0000    0    12.011    5.956228    3.496560    9.713948
  81 C     6.0000    0    12.011    5.242667   -1.645385   10.287480
  82 C     6.0000    0    12.011    5.730028   -0.645908    7.930047
  83 C     6.0000    0    12.011    6.102304    1.941316    7.587250
  84 C     6.0000    0    12.011    6.622923    2.964980    5.051805
  85 C     6.0000    0    12.011    5.717366    5.327138    4.325583
  86 C     6.0000    0    12.011    6.166932    6.288442    1.915615
  87 C     6.0000    0    12.011    5.081096    8.725432    1.121552
  88 C     6.0000    0    12.011    6.336819   10.312236   -0.571831
  89 C     6.0000    0    12.011    5.214510   12.487688   -1.476443
  90 C     6.0000    0    12.011    2.809456   13.183107   -0.661593
  91 C     6.0000    0    12.011    1.604000   11.689279    1.147253
  92 C     6.0000    0    12.011    2.708544    9.482646    1.987236
  93 C     6.0000    0    12.011    7.578558    4.848281    0.217319
  94 C     6.0000    0    12.011    8.475422    2.477242    0.893651
  95 C     6.0000    0    12.011    9.849253    0.863605   -0.932013
  96 C     6.0000    0    12.011    8.725244   -1.362115   -1.775398
  97 C     6.0000    0    12.011    9.967927   -2.951374   -3.425696
  98 C     6.0000    0    12.011   12.374872   -2.345906   -4.309143
  99 C     6.0000    0    12.011   13.515699   -0.121131   -3.457443
 100 C     6.0000    0    12.011   12.262622    1.457546   -1.794295
 101 C     6.0000    0    12.011    7.988817    1.549575    3.300974
 102 H     1.0000    0     1.008    5.293123    3.752051   13.692956
 103 H     1.0000    0     1.008    6.329071    5.492867    9.532723
 104 H     1.0000    0     1.008    4.935965   -3.649817   10.508389
 105 H     1.0000    0     1.008    5.788798   -1.899175    6.322079
 106 H     1.0000    0     1.008    4.644191    6.433573    5.660675
 107 H     1.0000    0     1.008    8.232970    9.850386   -1.165772
 108 H     1.0000    0     1.008    6.214175   13.705428   -2.772984
 109 H     1.0000    0     1.008   -0.255491   12.217079    1.803555
 110 H     1.0000    0     1.008    1.689226    8.304590    3.304564
 111 H     1.0000    0     1.008    7.924189    5.540488   -1.670518
 112 H     1.0000    0     1.008    6.848368   -1.848152   -1.135536
 113 H     1.0000    0     1.008    9.062560   -4.650994   -4.081808
 114 H     1.0000    0     1.008   15.416764    0.339962   -4.037589
 115 H     1.0000    0     1.008   13.180651    3.154142   -1.130623
 116 H     1.0000    0     1.008    8.752456   -0.268341    3.824050
 117 C     6.0000    0    12.011   -9.896307   -3.291147   -7.293209
 118 C     6.0000    0    12.011   -8.161538   -3.574795   -5.330917
 119 C     6.0000    0    12.011   -5.736453   -2.648262   -5.562598
 120 C     6.0000    0    12.011   -9.114905   -2.091360   -9.512881
 121 C     6.0000    0    12.011   -6.677158   -1.177488   -9.735869
 122 C     6.0000    0    12.011   -4.954862   -1.436381   -7.764129
 123 C     6.0000    0    12.011   -2.313214   -0.540273   -7.966518
 124 C     6.0000    0    12.011   -0.372465   -2.308300   -8.004502
 125 C     6.0000    0    12.011    2.147485   -1.553922   -8.120531
 126 C     6.0000    0    12.011    4.189901   -3.443459   -8.126200
 127 C     6.0000    0    12.011    3.929874   -5.693556   -6.778259
 128 C     6.0000    0    12.011    5.827348   -7.479914   -6.744055
 129 C     6.0000    0    12.011    8.108815   -7.025435   -7.985605
 130 C     6.0000    0    12.011    8.383014   -4.792912   -9.357357
 131 C     6.0000    0    12.011    6.440754   -3.053797   -9.447686
 132 C     6.0000    0    12.011    2.685868    1.021397   -8.169286
 133 C     6.0000    0    12.011    0.770819    2.827786   -8.111271
 134 C     6.0000    0    12.011    1.389705    5.540677   -8.063650
 135 C     6.0000    0    12.011    3.541725    6.398613   -6.805471
 136 C     6.0000    0    12.011    4.125650    8.937460   -6.705504
 137 C     6.0000    0    12.011    2.513336   10.724196   -7.784160
 138 C     6.0000    0    12.011    0.375489    9.884968   -9.075977
 139 C     6.0000    0    12.011   -0.151745    7.335161   -9.233769
 140 C     6.0000    0    12.011   -1.736658    2.018983   -8.029824
 141 H     1.0000    0     1.008   -8.745464   -4.482430   -3.606920
 142 H     1.0000    0     1.008   -4.428573   -2.858211   -4.009432
 143 H     1.0000    0     1.008  -10.391226   -1.938103  -11.097417
 144 H     1.0000    0     1.008   -6.092477   -0.280813  -11.472338
 145 H     1.0000    0     1.008   -0.850755   -4.291379   -8.017352
 146 H     1.0000    0     1.008    2.228743   -6.040132   -5.707540
 147 H     1.0000    0     1.008    5.599825   -9.197486   -5.667667
 148 H     1.0000    0     1.008   10.105688   -4.467691  -10.398596
 149 H     1.0000    0     1.008    6.663363   -1.380634  -10.591348
 150 H     1.0000    0     1.008    4.631341    1.625920   -8.254135
 151 H     1.0000    0     1.008    4.761543    5.065789   -5.857962
 152 H     1.0000    0     1.008    5.783318    9.566550   -5.697713
 153 H     1.0000    0     1.008   -0.830535   11.245949   -9.997974
 154 H     1.0000    0     1.008   -1.772752    6.725346  -10.309401
 155 H     1.0000    0     1.008   -3.249951    3.384877   -7.941574
 156 Zn   30.0000    0    65.380    0.890061   -0.269097   16.921742
 157 C     6.0000    0    12.011   -9.324098   -0.846975   23.399345
 158 C     6.0000    0    12.011   -6.959672   -0.561060   21.935563
 159 C     6.0000    0    12.011   -4.966956    0.934659   22.809750
 160 C     6.0000    0    12.011   -2.767126    1.130056   21.408707
 161 N     7.0000    0    14.007   -2.408456   -0.045731   19.220782
 162 C     6.0000    0    12.011   -4.300072   -1.491561   18.341304
 163 C     6.0000    0    12.011   -3.861277   -2.797929   15.977445
 164 N     7.0000    0    14.007   -1.706990   -2.784511   14.894632
 165 C     6.0000    0    12.011   -6.574924   -1.781445   19.626885
 166 H     1.0000    0     1.008  -10.788824   -1.787870   22.313130
 167 H     1.0000    0     1.008  -10.014226    0.982091   24.039395
 168 H     1.0000    0     1.008   -8.962026   -1.959268   25.097075
 169 H     1.0000    0     1.008   -5.134764    1.932434   24.579479
 170 H     1.0000    0     1.008   -1.222464    2.277687   22.091087
 171 H     1.0000    0     1.008   -5.451293   -3.853907   15.199445
 172 H     1.0000    0     1.008   -8.036627   -2.971405   18.846428
 173 C     6.0000    0    12.011    6.982727   -8.797620   22.892142
 174 C     6.0000    0    12.011    5.439955   -6.906760   21.529272
 175 C     6.0000    0    12.011    3.113891   -6.086052   22.472623
 176 C     6.0000    0    12.011    1.733446   -4.288733   21.166256
 177 N     7.0000    0    14.007    2.498596   -3.261667   19.009322
 178 C     6.0000    0    12.011    4.724315   -4.028896   18.057845
 179 C     6.0000    0    12.011    5.516300   -2.872384   15.703435
 180 N     7.0000    0    14.007    4.283064   -1.047853   14.726447
 181 C     6.0000    0    12.011    6.222301   -5.830750   19.248183
 182 H     1.0000    0     1.008    8.592018   -9.420474   21.781739
 183 H     1.0000    0     1.008    5.842088  -10.428265   23.415219
 184 H     1.0000    0     1.008    7.682304   -7.989951   24.655257
 185 H     1.0000    0     1.008    2.392771   -6.847234   24.220809
 186 H     1.0000    0     1.008   -0.064440   -3.646416   21.890210
 187 H     1.0000    0     1.008    7.233494   -3.609566   14.833027
 188 H     1.0000    0     1.008    8.001856   -6.382550   18.416893
 189 C     6.0000    0    12.011    4.699371    9.145708   23.368542
 190 C     6.0000    0    12.011    4.001117    6.897122   21.861297
 191 C     6.0000    0    12.011    4.770236    4.471659   22.570133
 192 C     6.0000    0    12.011    4.056864    2.404677   21.134886
 193 N     7.0000    0    14.007    2.650530    2.580421   19.065069
 194 C     6.0000    0    12.011    1.908245    4.894391   18.329777
 195 C     6.0000    0    12.011    0.450133    5.048970   16.017508
 196 N     7.0000    0    14.007   -0.158737    3.076663   14.764808
 197 C     6.0000    0    12.011    2.545272    7.067954   19.665813
 198 H     1.0000    0     1.008    3.900773    9.005301   25.262426
 199 H     1.0000    0     1.008    4.039479   10.885389   22.503615
 200 H     1.0000    0     1.008    6.741598    9.244540   23.609482
 201 H     1.0000    0     1.008    5.913142    4.206719   24.237249
 202 H     1.0000    0     1.008    4.640223    0.524588   21.678938
 203 H     1.0000    0     1.008   -0.012283    6.944177   15.353269
 204 H     1.0000    0     1.008    1.902198    8.889272   19.008755
 205 Zn   30.0000    0    65.380  -13.727727   -7.709705   -5.282540
 206 C     6.0000    0    12.011  -13.688420  -14.034996  -15.604225
 207 C     6.0000    0    12.011  -13.766844  -12.458020  -13.297436
 208 C     6.0000    0    12.011  -15.895998  -11.024662  -12.676850
 209 C     6.0000    0    12.011  -15.917541   -9.598486  -10.484768
 210 N     7.0000    0    14.007  -13.992288   -9.497386   -8.878122
 211 C     6.0000    0    12.011  -11.923794  -10.857422   -9.437481
 212 C     6.0000    0    12.011   -9.859268  -10.763313   -7.643942
 213 N     7.0000    0    14.007  -10.067705   -9.649320   -5.515733
 214 C     6.0000    0    12.011  -11.743892  -12.331975  -11.606509
 215 H     1.0000    0     1.008  -11.802663  -14.752525  -15.978390
 216 H     1.0000    0     1.008  -14.354738  -12.976371  -17.237326
 217 H     1.0000    0     1.008  -14.962285  -15.642397  -15.392953
 218 H     1.0000    0     1.008  -17.527966  -11.032788  -13.898180
 219 H     1.0000    0     1.008  -17.568595   -8.499421   -9.999864
 220 H     1.0000    0     1.008   -8.131492  -11.752774   -8.176467
 221 H     1.0000    0     1.008  -10.043327  -13.398347  -11.970092
 222 C     6.0000    0    12.011  -19.430920  -15.893164    1.503466
 223 C     6.0000    0    12.011  -18.033656  -14.118333   -0.143241
 224 C     6.0000    0    12.011  -17.836558  -14.516876   -2.746528
 225 C     6.0000    0    12.011  -16.543229  -12.800438   -4.237900
 226 N     7.0000    0    14.007  -15.444165  -10.736857   -3.329320
 227 C     6.0000    0    12.011  -15.597611  -10.318661   -0.829401
 228 C     6.0000    0    12.011  -14.380816   -8.050989    0.111494
 229 N     7.0000    0    14.007  -13.440110   -6.418455   -1.390460
 230 C     6.0000    0    12.011  -16.854656  -11.952329    0.800866
 231 H     1.0000    0     1.008  -19.184689  -15.451346    3.492025
 232 H     1.0000    0     1.008  -18.834144  -17.831645    1.156323
 233 H     1.0000    0     1.008  -21.443478  -15.818708    1.064294
 234 H     1.0000    0     1.008  -18.694683  -16.158103   -3.598039
 235 H     1.0000    0     1.008  -16.389028  -13.099393   -6.251970
 236 H     1.0000    0     1.008  -14.342076   -7.792853    2.156366
 237 H     1.0000    0     1.008  -16.935915  -11.533754    2.796039
 238 C     6.0000    0    12.011  -23.517642   -1.643117   -8.764739
 239 C     6.0000    0    12.011  -21.313465   -3.047939   -7.772822
 240 C     6.0000    0    12.011  -21.614876   -5.205818   -6.279560
 241 C     6.0000    0    12.011  -19.511989   -6.494233   -5.408396
 242 N     7.0000    0    14.007  -17.156635   -5.792200   -5.910307
 243 C     6.0000    0    12.011  -16.816295   -3.708777   -7.320988
 244 C     6.0000    0    12.011  -14.231528   -2.926808   -7.770932
 245 N     7.0000    0    14.007  -12.354085   -4.189901   -6.926980
 246 C     6.0000    0    12.011  -18.829042   -2.306222   -8.268497
 247 H     1.0000    0     1.008  -22.955070    0.032881   -9.806167
 248 H     1.0000    0     1.008  -24.770908   -1.092640   -7.227069
 249 H     1.0000    0     1.008  -24.627667   -2.852920  -10.009312
 250 H     1.0000    0     1.008  -23.483060   -5.872891   -5.809963
 251 H     1.0000    0     1.008  -19.735355   -8.167774   -4.259821
 252 H     1.0000    0     1.008  -13.978493   -1.149331   -8.782124
 253 H     1.0000    0     1.008  -18.467538   -0.647420   -9.399876
 254 Zn   30.0000    0    65.380   13.824292   -8.095965   -6.088509
 255 C     6.0000    0    12.011   24.039584   -8.639261    0.380780
 256 C     6.0000    0    12.011   21.745646   -8.400400   -1.198842
 257 C     6.0000    0    12.011   21.897768   -8.101823   -3.818003
 258 C     6.0000    0    12.011   19.711355   -7.921543   -5.241911
 259 N     7.0000    0    14.007   17.404945   -8.017541   -4.257175
 260 C     6.0000    0    12.011   17.212193   -8.300811   -1.742516
 261 C     6.0000    0    12.011   14.684306   -8.451044   -0.705435
 262 N     7.0000    0    14.007   12.732219   -8.558759   -2.116304
 263 C     6.0000    0    12.011   19.314324   -8.486382   -0.174611
 264 H     1.0000    0     1.008   23.609104   -8.505279    2.382756
 265 H     1.0000    0     1.008   25.426454   -7.204959   -0.119620
 266 H     1.0000    0     1.008   24.936637  -10.463036    0.033637
 267 H     1.0000    0     1.008   23.716063   -8.019809   -4.735654
 268 H     1.0000    0     1.008   19.829085   -7.701579   -7.268265
 269 H     1.0000    0     1.008   14.534829   -8.536082    1.348509
 270 H     1.0000    0     1.008   19.062423   -8.720519    1.836247
 271 C     6.0000    0    12.011   13.347325  -19.744804   -9.188604
 272 C     6.0000    0    12.011   13.517967  -17.090305   -8.329724
 273 C     6.0000    0    12.011   15.679625  -16.166229   -7.126913
 274 C     6.0000    0    12.011   15.789796  -13.662531   -6.377070
 275 N     7.0000    0    14.007   13.918589  -12.031319   -6.737441
 276 C     6.0000    0    12.011   11.815135  -12.878106   -7.880347
 277 C     6.0000    0    12.011    9.803899  -11.054898   -8.253568
 278 N     7.0000    0    14.007   10.121184   -8.720141   -7.749767
 279 C     6.0000    0    12.011   11.549439  -15.366119   -8.684425
 280 H     1.0000    0     1.008   11.460811  -20.221581   -9.840182
 281 H     1.0000    0     1.008   13.894967  -21.034542   -7.681737
 282 H     1.0000    0     1.008   14.670889  -20.065868  -10.736101
 283 H     1.0000    0     1.008   17.266428  -17.399464   -6.785062
 284 H     1.0000    0     1.008   17.458991  -12.939144   -5.449781
 285 H     1.0000    0     1.008    8.027935  -11.767514   -9.020041
 286 H     1.0000    0     1.008    9.826576  -15.959115   -9.602454
 287 C     6.0000    0    12.011   19.817558   -4.219192  -15.775434
 288 C     6.0000    0    12.011   18.311068   -5.219424  -13.643256
 289 C     6.0000    0    12.011   17.835991   -7.804947  -13.386820
 290 C     6.0000    0    12.011   16.445342   -8.680835  -11.352152
 291 N     7.0000    0    14.007   15.502368   -7.180959   -9.576187
 292 C     6.0000    0    12.011   15.912250   -4.684820   -9.793128
 293 C     6.0000    0    12.011   14.794099   -3.075718   -7.881292
 294 N     7.0000    0    14.007   13.521935   -3.981464   -6.039376
 295 C     6.0000    0    12.011   17.289293   -3.651896  -11.781309
 296 H     1.0000    0     1.008   19.931131   -2.170917  -15.741797
 297 H     1.0000    0     1.008   19.008755   -4.819935  -17.571052
 298 H     1.0000    0     1.008   21.727882   -4.988688  -15.716663
 299 H     1.0000    0     1.008   18.556166   -9.119818  -14.768021
 300 H     1.0000    0     1.008   16.079113  -10.678842  -11.141447
 301 H     1.0000    0     1.008   15.014630   -1.045019   -8.154357
 302 H     1.0000    0     1.008   17.577288   -1.634424  -11.877307
 303 Zn   30.0000    0    65.380    0.628334   16.142985   -5.612487
 304 C     6.0000    0    12.011   -6.099658   19.777118  -14.893310
 305 C     6.0000    0    12.011   -4.394369   18.875341  -12.869791
 306 C     6.0000    0    12.011   -1.891049   19.702663  -12.709542
 307 C     6.0000    0    12.011   -0.355269   18.846995  -10.772951
 308 N     7.0000    0    14.007   -1.126277   17.240160   -9.007758
 309 C     6.0000    0    12.011   -3.516780   16.395075   -9.136070
 310 C     6.0000    0    12.011   -4.286277   14.569600   -7.245777
 311 N     7.0000    0    14.007   -2.782433   13.832795   -5.506473
 312 C     6.0000    0    12.011   -5.181440   17.162682  -11.021450
 313 H     1.0000    0     1.008   -5.278194   19.404464  -16.744107
 314 H     1.0000    0     1.008   -6.333795   21.819912  -14.766320
 315 H     1.0000    0     1.008   -7.948944   18.894049  -14.789753
 316 H     1.0000    0     1.008   -1.155757   21.012243  -14.087908
 317 H     1.0000    0     1.008    1.579244   19.487045  -10.635190
 318 H     1.0000    0     1.008   -6.179971   13.782529   -7.449867
 319 H     1.0000    0     1.008   -7.089308   16.440239  -11.048095
 320 C     6.0000    0    12.011   -3.754130   25.148475    1.206590
 321 C     6.0000    0    12.011   -2.878809   23.075257   -0.452022
 322 C     6.0000    0    12.011   -3.259022   23.142909   -3.064191
 323 C     6.0000    0    12.011   -2.382000   21.187798   -4.563500
 324 N     7.0000    0    14.007   -1.164071   19.187523   -3.660777
 325 C     6.0000    0    12.011   -0.780079   19.080376   -1.154245
 326 C     6.0000    0    12.011    0.587516   16.908325   -0.206547
 327 N     7.0000    0    14.007    1.604944   15.299412   -1.686959
 328 C     6.0000    0    12.011   -1.608535   20.960464    0.486227
 329 H     1.0000    0     1.008   -3.617125   24.650910    3.192692
 330 H     1.0000    0     1.008   -5.693745   25.671174    0.763449
 331 H     1.0000    0     1.008   -2.608389   26.831465    0.881179
 332 H     1.0000    0     1.008   -4.228073   24.720263   -3.917780
 333 H     1.0000    0     1.008   -2.666215   21.246569   -6.584562
 334 H     1.0000    0     1.008    0.760426   16.748265    1.840971
 335 H     1.0000    0     1.008   -1.246274   20.792279    2.486880
 336 C     6.0000    0    12.011   10.837201   21.682907   -8.878500
 337 C     6.0000    0    12.011    8.488461   20.465356   -7.975778
 338 C     6.0000    0    12.011    6.658072   21.821235   -6.639553
 339 C     6.0000    0    12.011    4.465612   20.631841   -5.851159
 340 N     7.0000    0    14.007    3.972015   18.212614   -6.294678
 341 C     6.0000    0    12.011    5.709996   16.865806   -7.564763
 342 C     6.0000    0    12.011    5.125126   14.228882   -8.023399
 343 N     7.0000    0    14.007    2.970083   13.306129   -7.464418
 344 C     6.0000    0    12.011    7.963873   17.915549   -8.417029
 345 H     1.0000    0     1.008   10.391415   23.073178  -10.333589
 346 H     1.0000    0     1.008   12.155285   20.320603   -9.664437
 347 H     1.0000    0     1.008   11.753530   22.715831   -7.352735
 348 H     1.0000    0     1.008    6.947578   23.795809   -6.224191
 349 H     1.0000    0     1.008    3.044916   21.674970   -4.820502
 350 H     1.0000    0     1.008    6.599302   13.085598   -8.900232
 351 H     1.0000    0     1.008    9.299909   16.760737   -9.438804

--------------------------------
INTERNAL COORDINATES (ANGSTROEM)
--------------------------------
 C      0   0   0     0.000000000000     0.00000000     0.00000000
 C      1   0   0     1.393206101049     0.00000000     0.00000000
 C      2   1   0     1.381583008726   120.41264281     0.00000000
 C      1   2   3     1.395493070567   118.68135346     2.09374899
 C      4   1   2     1.379249237810   120.40572315   356.02825090
 C      5   4   1     1.395013279507   121.35652868     2.14914515
 C      6   5   4     1.473728879408   120.63688665   183.47308260
 C      7   6   5     1.393054205693   120.20722836   142.47709510
 C      8   7   6     1.392839499009   121.27246002   182.98202266
 C      9   8   7     1.473762603000   120.83328687   176.88231155
 C     10   9   8     1.394986272334   120.51998245   324.79406909
 C     11  10   9     1.379307032535   121.36948686   183.29769713
 C     12  11  10     1.395420771667   120.39579218     2.15130652
 C     13  12  11     1.393337981252   118.67438174   356.04179409
 C     14  13  12     1.381730150934   120.43046246     2.11449516
 C      9   8   7     1.393073967885   118.74648475   359.71776710
 C     16   9   8     1.393189857844   121.26016419     0.42456938
 C     17  16   9     1.473902208425   120.91516570   176.68709947
 C     18  17  16     1.395114260554   120.54779153   325.48818617
 C     19  18  17     1.379231271397   121.38347019   183.31532881
 C     20  19  18     1.395491906103   120.41446957     2.15870372
 C     21  20  19     1.393273863962   118.65441389   356.12237806
 C     22  21  20     1.381763890829   120.43260911     2.00130509
 C      7   6   5     1.393000251256   121.00722722   325.35390073
 H      2   1   3     1.079766136717   119.18025928   182.12903662
 H      3   2   1     1.079642991919   119.13859592   182.73091824
 H      4   1   2     1.080231276163   119.35424769   179.54531197
 H      5   4   1     1.079363673652   118.90889674   183.51331716
 H      8   7   6     1.078996821126   119.32925809     3.04438200
 H     11  10   9     1.079434027627   119.68981688     1.97826811
 H     12  11  10     1.080239755795   120.16292611   178.66149318
 H     14  13  12     1.079786872489   119.17581227   184.25384936
 H     15  14  13     1.079645265817   119.18116753   182.65777232
 H     16   9   8     1.079014897951   119.28281069   180.43113456
 H     19  18  17     1.079391657370   119.72204333     1.97073601
 H     20  19  18     1.080194593580   120.14658535   178.63274572
 H     22  21  20     1.079846479829   119.16185891   184.17407423
 H     23  22  21     1.079690335235   119.13285303   182.74085664
 H     24   7   6     1.079010792346   119.42559961   356.92450298
 C     27   4   1     3.504691253163   101.29118757    59.61207658
 C     40  27   4     1.397691285656   100.87410590   162.26787855
 C     41  40  27     1.382865119959   120.42184131   302.84229195
 C     40  27   4     1.394001671448    55.28828023    44.74742117
 C     43  40  27     1.379157007016   120.53628455    84.55381556
 C     42  41  40     1.391955825448   120.79339858     0.05932516
 C     45  42  41     1.480345500213   122.29638670   179.31328666
 C     46  45  42     1.388775637027   119.50010874   249.25706168
 C     47  46  45     1.393727347798   121.26338446   182.47080041
 C     48  47  46     1.472174398636   120.17940094   178.25341801
 C     49  48  47     1.395069238425   120.23390102   326.46233453
 C     50  49  48     1.378963763121   121.33867928   180.20365493
 C     51  50  49     1.395404009597   120.36813595     2.54569809
 C     52  51  50     1.394187828092   118.76875472   357.09377503
 C     53  52  51     1.380736357890   120.36864302     0.89020444
 C     48  47  46     1.394541663056   118.54094755     0.16759849
 C     55  48  47     1.388881024422   120.83501077     0.52979181
 C     56  55  48     1.481128924166   120.98541336   175.98952965
 C     57  56  55     1.391881151536   122.31699321    73.76942036
 C     58  57  56     1.382896529029   120.78274868   179.28914150
 C     59  58  57     1.397425862076   120.42223783   359.83876811
 C     60  59  58     1.394065113257   118.74250694   359.18756193
 C     61  60  59     1.379425072267   120.49471775     1.40938596
 C     46  45  42     1.388830961636   121.12228624    72.31289372
 H     41  40  27     1.079666309561   120.09712420   120.52078088
 H     42  41  40     1.079430169117   119.60321199   179.24314753
 H     43  40  27     1.076284906519   119.36151040   262.83610337
 H     44  43  40     1.080219486956   119.48897732   178.88089301
 H     47  46  45     1.079505785070   118.68364723     4.56537052
 H     50  49  48     1.079258768785   119.74660060   359.00572156
 H     51  50  49     1.079346255842   120.18500591   179.09676414
 H     53  52  51     1.078966806718   119.26878461   182.86848359
 H     54  53  52     1.078905931951   119.07140243   182.60182299
 H     55  48  47     1.079937025942   119.96933020   178.07848089
 H     58  57  56     1.079563712803   119.63451593   359.96389920
 H     59  58  57     1.079873807442   119.49532100   182.13839038
 H     61  60  59     1.076307604730   119.43677871   179.69433489
 H     62  61  60     1.080144832881   119.46869449   178.81486721
 H     63  46  45     1.080141962892   119.88461760   357.41062627
 C     66  43  40     2.453053531825   141.22660031   310.50649501
 C     79  66  43     1.394168781030    90.39535729   339.56828093
 C     80  79  66     1.380734550882   120.37327444   279.70418321
 C     79  66  43     1.395384477483    81.89922411   220.56025667
 C     82  79  66     1.379312825287   120.37459147    83.15560812
 C     83  82  79     1.395044719713   121.35436211     2.62697144
 C     84  83  82     1.472921596691   120.38401393   179.93473356
 C     85  84  83     1.392773897659   121.13523656   145.23238998
 C     86  85  84     1.393471273475   121.42769488   181.09337316
 C     87  86  85     1.473024561913   120.93577507   176.57415604
 C     88  87  86     1.396299233689   121.59579081   147.88349777
 C     89  88  87     1.380989623422   121.27230861   174.34513752
 C     90  89  88     1.393241806005   120.38091524     1.63374175
 C     91  90  89     1.395721498007   118.69543648     2.26048814
 C     92  91  90     1.379399793388   120.44984233   355.91011254
 C     87  86  85     1.395158449783   118.78518483   359.34810239
 C     94  87  86     1.388383830214   120.70546397     1.34954133
 C     95  94  87     1.480210599881   121.39765496   176.44442881
 C     96  95  94     1.392904723949   119.15572553   247.78972871
 C     97  96  95     1.379264894790   120.98816769   181.68158628
 C     98  97  96     1.394103331895   120.51668859   359.29374217
 C     99  98  97     1.397719381707   118.68962673     1.02727293
 C    100  99  98     1.382812633729   120.46223028   359.25311775
 C     95  94  87     1.389284085420   119.49439099   359.08950721
 H     80  79  66     1.078997057457   119.27082662   101.80666529
 H     81  80  79     1.078937004649   118.99969338   182.91215692
 H     82  79  66     1.079393992016   119.34705798   266.55661691
 H     83  82  79     1.079273950394   118.86969381   183.72250029
 H     86  85  84     1.079102826426   119.16846860     1.07052270
 H     89  88  87     1.079503316345   119.54132689   353.35363754
 H     90  89  88     1.079734027435   120.46901264   179.47720359
 H     92  91  90     1.080223023269   119.36561520   179.55976308
 H     93  92  91     1.079596373651   119.02418667   183.57015801
 H     94  87  86     1.079643042862   120.09376701   178.96595219
 H     97  96  95     1.080392539774   119.56686648     1.98064892
 H     98  97  96     1.076570949822   120.09408984   180.91178146
 H    100  99  98     1.079731911171   120.07180680   176.80376821
 H    101 100  99     1.079531342759   119.58357983   179.03258698
 H    102  95  94     1.079517971133   118.72556734   182.11099721
 C     36  20  19     3.521785369667   101.56168393   242.97829595
 C    118  36  20     1.394104935075    54.53275579    44.95045318
 C    119 118  36     1.379233025997   120.54410450    85.13798976
 C    118  36  20     1.397771590783   101.76187646   161.93159285
 C    121 118  36     1.382712175400   120.43561423   303.32915959
 C    122 121 118     1.392157505457   120.82332658     0.12686740
 C    123 122 121     1.480020425535   122.17971840   178.34974685
 C    124 123 122     1.389417277135   118.91047301   247.64010936
 C    125 124 123     1.393324387930   121.00622517   181.83445960
 C    126 125 124     1.472391812664   120.53391410   179.19577892
 C    127 126 125     1.394810790036   120.41544203   326.40778907
 C    128 127 126     1.379179651097   121.33204428   180.47093273
 C    129 128 127     1.395371828582   120.37127058     2.60585275
 C    130 129 128     1.394163110974   118.76741149   356.91865803
 C    131 130 129     1.380438252875   120.36260161     0.95811891
 C    126 125 124     1.392500445242   118.49134084     0.71366792
 C    133 126 125     1.393437067111   121.47765058   359.83333100
 C    134 133 126     1.472697745636   120.48865284   177.58688177
 C    135 134 133     1.395088197929   120.45916434   326.17823782
 C    136 135 134     1.379591120586   121.20131098   181.12959438
 C    137 136 135     1.395612098686   120.47389103     2.51881853
 C    138 137 136     1.394407924533   118.73314532   356.68137528
 C    139 138 137     1.380370870455   120.32836539     1.28997583
 C    124 123 122     1.388645653146   121.44915961    69.90460184
 H    119 118  36     1.076317973463   119.36328536   263.51881600
 H    120 119 118     1.080215362787   119.46855417   178.96740428
 H    121 118  36     1.079733587511   120.10983367   120.85853971
 H    122 121 118     1.079470157068   119.58977951   179.06255470
 H    125 124 123     1.079512024018   118.77571434     4.23963254
 H    128 127 126     1.079366091741   119.72098736   359.29106628
 H    129 128 127     1.079369969010   120.19025282   179.13047226
 H    131 130 129     1.078996742349   119.27319651   182.99383773
 H    132 131 130     1.078924019568   119.02717319   182.81404899
 H    133 126 125     1.078991320632   119.08716016   179.84102660
 H    136 135 134     1.079592654662   119.80944479   359.93021366
 H    137 136 135     1.079217837139   120.09237373   179.03212771
 H    139 138 137     1.078903929921   119.27557157   183.12194156
 H    140 139 138     1.078862720646   119.01232431   182.55919046
 H    141 124 123     1.079769128101   119.26544624   359.59943084
 Zn    79  66  43     3.244468787028    68.46916912    82.98609850
 C    157  79  66     6.407685423770   164.59621946     9.45268725
 C    158 157  79     1.479323592051     3.19540758   256.16010291
 C    159 158 157     1.397297842266   121.52538565   221.57568968
 C    160 159 158     1.384013847474   119.98197697   179.05233307
 N    161 160 159     1.328027755734   123.52013588   359.95611387
 C    162 161 160     1.343121800136   117.54611457     0.13457529
 C    163 162 161     1.447951428743   116.85925813   181.12094138
 N    164 163 162     1.275922963975   121.91056267     6.61013311
 C    163 162 161     1.391213172019   122.56463882     0.12199205
 H    158 157  79     1.085854253572   109.92762684    25.40891824
 H    158 157  79     1.088539911992   114.01760536   262.09254232
 H    158 157  79     1.091000953253   108.54928437   143.69138779
 H    160 159 158     1.078750059096   120.16823634   359.31933666
 H    161 160 159     1.080439382844   119.95307238   180.37537838
 H    164 163 162     1.090737498209   116.54967338   184.48964324
 H    166 163 162     1.079533853105   119.81693672   180.26446362
 C     25   2   1     5.746108513594   171.61246689    41.93152032
 C    174  25   2     1.479134463124    32.92117628   294.35731942
 C    175 174  25     1.397473412985   121.48092148   121.61595648
 C    176 175 174     1.384238834161   119.99725494   179.13452202
 N    177 176 175     1.327452530225   123.35066092     0.00000000
 C    178 177 176     1.343711684105   117.76460023     0.31035003
 C    179 178 177     1.449984696471   116.60191136   180.12644542
 N    180 179 178     1.274898431249   121.34126426     6.69725985
 C    179 178 177     1.390794575054   122.48140577   359.88874429
 H    174  25   2     1.085878667255    89.55271756   159.86006207
 H    174  25   2     1.088828549405    98.10168831    50.34759922
 H    174  25   2     1.090966452280   142.13055989   280.12797351
 H    176 175 174     1.078738341768   120.12433176   359.28637952
 H    177 176 175     1.080490434941   120.24851775   180.10189940
 H    180 179 178     1.090901489595   116.91216952   185.44623649
 H    182 179 178     1.079617941681   119.87015603   180.28354055
 C    171 161 160     4.846226888003   163.20697298   259.13443279
 C    190 171 161     1.479377578578    32.86935259   276.28241939
 C    191 190 171     1.397755794121   121.41046009   273.11761179
 C    192 191 190     1.384104381902   119.93304340   179.17702838
 N    193 192 191     1.327465528743   123.38753221     0.09507736
 C    194 193 192     1.343536713306   117.82112179     0.56155984
 C    195 194 193     1.448880519574   116.85482572   177.89483986
 N    196 195 194     1.277716298714   121.75733159     1.69339789
 C    195 194 193     1.391562233607   122.36819334   359.48292089
 H    190 171 161     1.090190850264    80.00646614   119.89260599
 H    190 171 161     1.085787405527   111.65943717    13.61295522
 H    190 171 161     1.089451251778   133.92840677   222.91455786
 H    192 191 190     1.078756654672   120.13586348   359.39516830
 H    193 192 191     1.080744238939   120.22564016   180.24668739
 H    196 195 194     1.090522237279   116.33537916   184.82916176
 H    198 195 194     1.079634113948   119.86070891   180.19574129
 Zn    52  51  50     3.239909358300   129.01301081   136.59524639
 C    206  52  51     6.406061542008   164.40184819   310.32746671
 C    207 206  52     1.479263664801     3.19060176   255.68236457
 C    208 207 206     1.397362408253   121.51835018   221.84964044
 C    209 208 207     1.383944381108   119.97579544   179.08092735
 N    210 209 208     1.328027006503   123.52170744   359.93914953
 C    211 210 209     1.343031365978   117.55248408     0.14645509
 C    212 211 210     1.448042506282   116.87344115   181.09234644
 N    213 212 211     1.275932122019   121.95064173     6.65186251
 C    212 211 210     1.391177907386   122.55995681     0.12613317
 H    207 206  52     1.085900778156   109.94700905    24.62051549
 H    207 206  52     1.088573580425   114.01312593   261.29978976
 H    207 206  52     1.091068471729   108.54037167   142.90662169
 H    209 208 207     1.078669152243   120.16982636   359.35378916
 H    210 209 208     1.080487764854   119.95055711   180.37296380
 H    213 212 211     1.090647830420   116.52671430   184.56399067
 H    215 212 211     1.079477771888   119.82207446   180.24833525
 C     37  22  21     5.763471921507   171.45028369    40.01390739
 C    223  37  22     1.479238642005    32.92033218   296.50167747
 C    224 223  37     1.397547516187   121.47784097   121.48111527
 C    225 224 223     1.384286419062   119.99047110   179.13985703
 N    226 225 224     1.327362497587   123.36200429     0.00000000
 C    227 226 225     1.343737898550   117.75004477     0.31417730
 C    228 227 226     1.450004006891   116.58428359   180.00627270
 N    229 228 227     1.275082385574   121.33470861     6.84316001
 C    228 227 226     1.390720165957   122.49565160   359.88407896
 H    223  37  22     1.085806529728    89.69174615   162.32480438
 H    223  37  22     1.088917338461    97.88370361    52.81564255
 H    223  37  22     1.090773633711   142.20354627   282.88764619
 H    225 224 223     1.078674844427   120.12299935   359.29211840
 H    226 225 224     1.080562557190   120.23821274   180.10943133
 H    229 228 227     1.090880479246   116.90994691   185.68960596
 H    231 228 227     1.079641093142   119.87741294   180.28155655
 C    220 210 209     4.847840943142   163.73426207   258.78114164
 C    239 220 210     1.479409520721    32.83569968   276.48600224
 C    240 239 220     1.397781062971   121.40755448   272.87694965
 C    241 240 239     1.384086731386   119.93207043   179.18498232
 N    242 241 240     1.327429308852   123.39543751     0.09219242
 C    243 242 241     1.343578992840   117.81897209     0.56991562
 C    244 243 242     1.448723193022   116.88826689   177.88649147
 N    245 244 243     1.277987625136   121.81301635     1.81524813
 C    244 243 242     1.391653983575   122.35858977   359.47795838
 H    239 220 210     1.085784559662   111.39832074    14.20530534
 H    239 220 210     1.089402414170   134.11903369   223.73251608
 H    239 220 210     1.090251695711    80.15136084   120.56289781
 H    241 240 239     1.078745201612   120.14104518   359.39629869
 H    242 241 240     1.080592170988   120.20583083   180.25189268
 H    245 244 243     1.090407987865   116.29420419   184.96265696
 H    247 244 243     1.079615774246   119.85531659   180.21777754
 Zn   130 129 128     3.236717119243   129.21900952   136.47548973
 C    255 130 129     6.404991514436   164.21298002   310.75667451
 C    256 255 130     1.479276505593     3.20441696   255.70059306
 C    257 256 255     1.397297480854   121.52635933   221.92214016
 C    258 257 256     1.384020379185   119.97747848   179.04660651
 N    259 258 257     1.328061030224   123.50478817   359.95805868
 C    260 259 258     1.342995346232   117.57130351     0.11793457
 C    261 260 259     1.448082518367   116.85937383   181.16129154
 N    262 261 260     1.275832888744   121.91262995     6.65109621
 C    261 260 259     1.391214969011   122.55270647     0.15213867
 H    256 255 130     1.085931862503   109.96551889    24.09002937
 H    256 255 130     1.088489434951   114.06156429   260.68849738
 H    256 255 130     1.091102098797   108.47570805   142.30562719
 H    258 257 256     1.078665731355   120.16463135   359.32524440
 H    259 258 257     1.080396936316   119.97150227   180.35512537
 H    262 261 260     1.090703176854   116.54633613   184.52008341
 H    264 261 260     1.079550327683   119.81623711   180.25773744
 C     32  14  13     5.741437773764   171.77446190    41.00914918
 C    272  32  14     1.479157337811    33.01141301   295.39974021
 C    273 272  32     1.397412058056   121.48313562   121.92035908
 C    274 273 272     1.384272061410   119.99758659   179.13869549
 N    275 274 273     1.327394730289   123.35371368     0.00000000
 C    276 275 274     1.343714352085   117.75866385     0.30418951
 C    277 276 275     1.450027510084   116.57926469   180.10673523
 N    278 277 276     1.275039693500   121.30550748     6.74776861
 C    277 276 275     1.390774665429   122.48928142   359.90067997
 H    272  32  14     1.085884533456    89.39126731   160.69120041
 H    272  32  14     1.088869620294    98.17001692    51.21145466
 H    272  32  14     1.090881927616   142.19272387   280.78130566
 H    274 273 272     1.078752826184   120.12398105   359.29199104
 H    275 274 273     1.080528213422   120.24381218   180.12272912
 H    278 277 276     1.090843623073   116.93530177   185.49838799
 H    280 277 276     1.079661507140   119.87930681   180.28188304
 C    269 259 258     4.864375837659   163.59107978   257.78234170
 C    288 269 259     1.479441523008    32.78935184   277.56030976
 C    289 288 269     1.397708013142   121.41158080   272.76834306
 C    290 289 288     1.384075124406   119.93188844   179.20780497
 N    291 290 289     1.327473061874   123.39276090     0.07881014
 C    292 291 290     1.343503427610   117.81787434     0.55368376
 C    293 292 291     1.448688382641   116.88949442   177.96911490
 N    294 293 292     1.277875901643   121.82872738     1.48976569
 C    293 292 291     1.391649977545   122.36414499   359.49657923
 H    288 269 259     1.085710854694   111.28220287    15.46155356
 H    288 269 259     1.089552408102   134.19133436   225.16440678
 H    288 269 259     1.090274213214    80.26737455   121.88813226
 H    290 289 288     1.078698132009   120.13829409   359.41133371
 H    291 290 289     1.080682182698   120.21499443   180.24064877
 H    294 293 292     1.090533951787   116.29177013   184.56493394
 H    296 293 292     1.079618525221   119.86029668   180.19524794
 Zn   138 137 136     3.246262949916   129.90366034   136.50608685
 C    154 139 138     5.904745328124   171.14612972    16.84772816
 C    305 154 139     1.479411450544    31.54880020   319.68908464
 C    306 305 154     1.397744601134   121.39775145   117.94525324
 C    307 306 305     1.384096878835   119.92971154   179.15636708
 N    308 307 306     1.327409846280   123.37466122     0.13440830
 C    309 308 307     1.343437103105   117.84524316     0.58715476
 C    310 309 308     1.448988588637   116.84925365   177.71785150
 N    311 310 309     1.277675940918   121.71615917     1.35924094
 C    310 309 308     1.391541785215   122.35387165   359.41412532
 H    305 154 139     1.089530307059    93.87529840    83.60712177
 H    305 154 139     1.090150471265   141.69870718   320.99533039
 H    305 154 139     1.085831612176    94.26697371   193.10464807
 H    307 306 305     1.078736376507   120.13541627   359.39369862
 H    308 307 306     1.080737613855   120.23836049   180.27552288
 H    311 310 309     1.090568961598   116.38945298   184.62637080
 H    313 310 309     1.079650063678   119.86555336   180.22746825
 C    304 138 137     6.411668059873   165.21981880   309.99920295
 C    321 304 309     1.479371467888     3.28874262    32.37063031
 C    322 321 304     1.397324718882   121.52221639   222.00117313
 C    323 322 321     1.383932632031   119.97946057   179.04417818
 N    324 323 322     1.328156538214   123.52712393     0.00000000
 C    325 324 323     1.343071885641   117.53364451     0.10473146
 C    326 325 324     1.447882695525   116.82096966   181.00695815
 N    327 326 325     1.276116013535   121.86298585     6.89590304
 C    326 325 324     1.391264956793   122.57175382     0.14519085
 H    321 304 309     1.085902454183   109.89797251   161.05602927
 H    321 304 309     1.088574650633   114.12062654    37.67838982
 H    321 304 309     1.091064109024   108.47394152   279.25457046
 H    323 322 321     1.078758925803   120.16491410   359.31237599
 H    324 323 322     1.080471017659   119.95200803   180.38043375
 H    327 326 325     1.090650535231   116.59498321   184.89363691
 H    329 326 325     1.079590468650   119.80074715   180.28132195
 C    318 308 307     5.120115327803   171.77230930   181.52578115
 C    337 318 308     1.479229593403    32.41545375   348.29049933
 C    338 337 318     1.397491545592   121.47577456   271.75684802
 C    339 338 337     1.384291963424   119.99689416   179.13558405
 N    340 339 338     1.327486937789   123.37407125     0.00000000
 C    341 340 339     1.343691850835   117.72759360     0.34631811
 C    342 341 340     1.449770568056   116.62362969   179.98033629
 N    343 342 341     1.275322190664   121.37202875     6.56601030
 C    342 341 340     1.390868268385   122.49927606   359.82465150
 H    337 318 308     1.090781050440    79.51215934   188.79885675
 H    337 318 308     1.085898646283   113.22834439    83.09826782
 H    337 318 308     1.088941839586   132.42371183   291.40030679
 H    339 338 337     1.078702132194   120.13211298   359.28069172
 H    340 339 338     1.080448240315   120.20025403   180.10645293
 H    343 342 341     1.090814837633   116.89571254   185.41063857
 H    345 342 341     1.079652119898   119.85918607   180.32047861

---------------------------
INTERNAL COORDINATES (A.U.)
---------------------------
 C      0   0   0     0.000000000000     0.00000000     0.00000000
 C      1   0   0     2.632777979091     0.00000000     0.00000000
 C      2   1   0     2.610813517771   120.41264281     0.00000000
 C      1   2   3     2.637099725156   118.68135346     2.09374899
 C      4   1   2     2.606403329881   120.40572315   356.02825090
 C      5   4   1     2.636193051451   121.35652868     2.14914515
 C      6   5   4     2.784943977731   120.63688665   183.47308260
 C      7   6   5     2.632490938468   120.20722836   142.47709510
 C      8   7   6     2.632085201635   121.27246002   182.98202266
 C      9   8   7     2.785007706084   120.83328687   176.88231155
 C     10   9   8     2.636142015291   120.51998245   324.79406909
 C     11  10   9     2.606512546082   121.36948686   183.29769713
 C     12  11  10     2.636963100036   120.39579218     2.15130652
 C     13  12  11     2.633027196557   118.67438174   356.04179409
 C     14  13  12     2.611091576247   120.43046246     2.11449516
 C      9   8   7     2.632528283598   118.74648475   359.71776710
 C     16   9   8     2.632747283882   121.26016419     0.42456938
 C     17  16   9     2.785271522105   120.91516570   176.68709947
 C     18  17  16     2.636383877974   120.54779153   325.48818617
 C     19  18  17     2.606369378281   121.38347019   183.31532881
 C     20  19  18     2.637097524639   120.41446957     2.15870372
 C     21  20  19     2.632906032439   118.65441389   356.12237806
 C     22  21  20     2.611155335409   120.43260911     2.00130509
 C      7   6   5     2.632388979358   121.00722722   325.35390073
 H      2   1   3     2.040462287077   119.18025928   182.12903662
 H      3   2   1     2.040229577134   119.13859592   182.73091824
 H      4   1   2     2.041341273244   119.35424769   179.54531197
 H      5   4   1     2.039701742106   118.90889674   183.51331716
 H      8   7   6     2.039008491300   119.32925809     3.04438200
 H     11  10   9     2.039834691851   119.68981688     1.97826811
 H     12  11  10     2.041357297426   120.16292611   178.66149318
 H     14  13  12     2.040501472008   119.17581227   184.25384936
 H     15  14  13     2.040233874178   119.18116753   182.65777232
 H     16   9   8     2.039042651548   119.28281069   180.43113456
 H     19  18  17     2.039754623669   119.72204333     1.97073601
 H     20  19  18     2.041271953209   120.14658535   178.63274572
 H     22  21  20     2.040614113557   119.16185891   184.17407423
 H     23  22  21     2.040319043036   119.13285303   182.74085664
 H     24   7   6     2.039034893080   119.42559961   356.92450298
 C     27   4   1     6.622906652428   101.29118757    59.61207658
 C     40  27   4     2.641253749659   100.87410590   162.26787855
 C     41  40  27     2.613236356875   120.42184131   302.84229195
 C     40  27   4     2.634281389265    55.28828023    44.74742117
 C     43  40  27     2.606229038938   120.53628455    84.55381556
 C     42  41  40     2.630415300614   120.79339858     0.05932516
 C     45  42  41     2.797447578985   122.29638670   179.31328666
 C     46  45  42     2.624405615443   119.50010874   249.25706168
 C     47  46  45     2.633762992695   121.26338446   182.47080041
 C     48  47  46     2.782006434793   120.17940094   178.25341801
 C     49  48  47     2.636298798482   120.23390102   326.46233453
 C     50  49  48     2.605863860900   121.33867928   180.20365493
 C     51  50  49     2.636931424314   120.36813595     2.54569809
 C     52  51  50     2.634633174340   118.76875472   357.09377503
 C     53  52  51     2.609213579560   120.36864302     0.89020444
 C     48  47  46     2.635301825520   118.54094755     0.16759849
 C     55  48  47     2.624604768758   120.83501077     0.52979181
 C     56  55  48     2.798928035702   120.98541336   175.98952965
 C     57  56  55     2.630274187369   122.31699321    73.76942036
 C     58  57  56     2.613295711415   120.78274868   179.28914150
 C     59  58  57     2.640752171783   120.42223783   359.83876811
 C     60  59  58     2.634401276909   118.74250694   359.18756193
 C     61  60  59     2.606735608850   120.49471775     1.40938596
 C     46  45  42     2.624510163803   121.12228624    72.31289372
 H     41  40  27     2.040273641091   120.09712420   120.52078088
 H     42  41  40     2.039827400323   119.60321199   179.24314753
 H     43  40  27     2.033883715393   119.36151040   262.83610337
 H     44  43  40     2.041318994872   119.48897732   178.88089301
 H     47  46  45     2.039970293766   118.68364723     4.56537052
 H     50  49  48     2.039503500637   119.74660060   359.00572156
 H     51  50  49     2.039668827215   120.18500591   179.09676414
 H     53  52  51     2.038951772289   119.26878461   182.86848359
 H     54  53  52     2.038836735651   119.07140243   182.60182299
 H     55  48  47     2.040785220911   119.96933020   178.07848089
 H     58  57  56     2.040079761316   119.63451593   359.96389920
 H     59  58  57     2.040665755261   119.49532100   182.13839038
[...]
300 H      0.8469     1.0000     0.1531     0.9641     0.9641     0.0000
301 H      0.8514     1.0000     0.1486     0.9723     0.9723     0.0000
302 H      0.8307     1.0000     0.1693     0.9638     0.9638     0.0000
303 Zn    29.6863    30.0000     0.3137     2.7062     2.7062     0.0000
304 C      6.4898     6.0000    -0.4898     3.7677     3.7677     0.0000
305 C      5.8579     6.0000     0.1421     3.5889     3.5889     0.0000
306 C      6.1360     6.0000    -0.1360     3.7362     3.7362     0.0000
307 C      6.0525     6.0000    -0.0525     3.8846     3.8846     0.0000
308 N      6.9619     7.0000     0.0381     3.1403     3.1403    -0.0000
309 C      5.8062     6.0000     0.1938     3.7764     3.7764    -0.0000
310 C      6.2644     6.0000    -0.2644     3.9807     3.9807    -0.0000
311 N      6.8641     7.0000     0.1359     3.1080     3.1080    -0.0000
312 C      6.2074     6.0000    -0.2074     3.8622     3.8622     0.0000
313 H      0.7991     1.0000     0.2009     0.9475     0.9475     0.0000
314 H      0.7923     1.0000     0.2077     0.9460     0.9460     0.0000
315 H      0.8300     1.0000     0.1700     0.9597     0.9597     0.0000
316 H      0.8191     1.0000     0.1809     0.9592     0.9592     0.0000
317 H      0.8470     1.0000     0.1530     0.9641     0.9641     0.0000
318 H      0.8502     1.0000     0.1498     0.9719     0.9719    -0.0000
319 H      0.8306     1.0000     0.1694     0.9638     0.9638     0.0000
320 C      6.4841     6.0000    -0.4841     3.7661     3.7661    -0.0000
321 C      5.8687     6.0000     0.1313     3.5945     3.5945    -0.0000
322 C      6.1363     6.0000    -0.1363     3.7371     3.7371    -0.0000
323 C      6.0491     6.0000    -0.0491     3.8827     3.8827    -0.0000
324 N      6.9704     7.0000     0.0296     3.1521     3.1521    -0.0000
325 C      5.7727     6.0000     0.2273     3.7259     3.7259     0.0000
326 C      6.2494     6.0000    -0.2494     3.9629     3.9629    -0.0000
327 N      6.8951     7.0000     0.1049     3.0910     3.0910    -0.0000
328 C      6.1892     6.0000    -0.1892     3.8502     3.8502    -0.0000
329 H      0.8299     1.0000     0.1701     0.9596     0.9596    -0.0000
330 H      0.8062     1.0000     0.1938     0.9503     0.9503    -0.0000
331 H      0.7855     1.0000     0.2145     0.9438     0.9438    -0.0000
332 H      0.8194     1.0000     0.1806     0.9591     0.9591    -0.0000
333 H      0.8455     1.0000     0.1545     0.9643     0.9643    -0.0000
334 H      0.8505     1.0000     0.1495     0.9719     0.9719    -0.0000
335 H      0.8306     1.0000     0.1694     0.9634     0.9634    -0.0000
336 C      6.4860     6.0000    -0.4860     3.7659     3.7659    -0.0000
337 C      5.8680     6.0000     0.1320     3.6026     3.6026     0.0000
338 C      6.1253     6.0000    -0.1253     3.7270     3.7270    -0.0000
339 C      6.0592     6.0000    -0.0592     3.9058     3.9058    -0.0000
340 N      6.9525     7.0000     0.0475     3.1524     3.1524    -0.0000
341 C      5.7632     6.0000     0.2368     3.6490     3.6490    -0.0000
342 C      6.2955     6.0000    -0.2955     3.9386     3.9386    -0.0000
343 N      6.8699     7.0000     0.1301     3.0194     3.0194     0.0000
344 C      6.1906     6.0000    -0.1906     3.8612     3.8612    -0.0000
345 H      0.7876     1.0000     0.2124     0.9444     0.9444    -0.0000
346 H      0.8301     1.0000     0.1699     0.9597     0.9597    -0.0000
347 H      0.8029     1.0000     0.1971     0.9490     0.9490    -0.0000
348 H      0.8187     1.0000     0.1813     0.9589     0.9589    -0.0000
349 H      0.8475     1.0000     0.1525     0.9645     0.9645    -0.0000
350 H      0.8488     1.0000     0.1512     0.9712     0.9712    -0.0000
351 H      0.8301     1.0000     0.1699     0.9633     0.9633    -0.0000

  Mayer bond orders larger than 0.100000
B(  0-C ,  1-C ) :   1.3586 B(  0-C ,  3-C ) :   1.3114 B(  0-C ,164-N ) :   0.8241 
B(  1-C ,  2-C ) :   1.3533 B(  1-C , 24-H ) :   0.9632 B(  2-C ,  5-C ) :   1.2699 
B(  2-C , 25-H ) :   0.9599 B(  3-C ,  4-C ) :   1.4026 B(  3-C , 26-H ) :   0.9400 
B(  4-C ,  5-C ) :   1.4111 B(  4-C , 27-H ) :   0.9231 B(  5-C ,  6-C ) :   0.7280 
B(  6-C ,  7-C ) :   1.3712 B(  6-C , 23-C ) :   1.4083 B(  7-C ,  8-C ) :   1.4079 
B(  7-C , 28-H ) :   0.9006 B(  8-C ,  9-C ) :   0.7259 B(  8-C , 15-C ) :   1.3709 
B(  9-C , 10-C ) :   1.4150 B(  9-C , 14-C ) :   1.2695 B( 10-C , 11-C ) :   1.3982 
B( 10-C , 29-H ) :   0.9236 B( 11-C , 12-C ) :   1.3118 B( 11-C , 30-H ) :   0.9405 
B( 12-C , 13-C ) :   1.3579 B( 12-C ,262-N ) :   0.8233 B( 13-C , 14-C ) :   1.3516 
B( 13-C , 31-H ) :   0.9636 B( 14-C , 32-H ) :   0.9612 B( 15-C , 16-C ) :   1.4071 
B( 15-C , 33-H ) :   0.9010 B( 16-C , 17-C ) :   0.7272 B( 16-C , 23-C ) :   1.3695 
B( 17-C , 18-C ) :   1.4133 B( 17-C , 22-C ) :   1.2716 B( 18-C , 19-C ) :   1.4011 
B( 18-C , 34-H ) :   0.9227 B( 19-C , 20-C ) :   1.3110 B( 19-C , 35-H ) :   0.9405 
B( 20-C , 21-C ) :   1.3602 B( 20-C ,213-N ) :   0.8223 B( 21-C , 22-C ) :   1.3527 
B( 21-C , 36-H ) :   0.9633 B( 22-C , 37-H ) :   0.9593 B( 23-C , 38-H ) :   0.9017 
B( 39-C , 40-C ) :   1.2248 B( 39-C , 42-C ) :   1.4191 B( 39-C ,196-N ) :   0.8737 
B( 40-C , 41-C ) :   1.3918 B( 40-C , 63-H ) :   0.9698 B( 41-C , 44-C ) :   1.3691 
B( 41-C , 64-H ) :   0.9557 B( 42-C , 43-C ) :   1.4051 B( 42-C , 65-H ) :   0.8802 
B( 43-C , 44-C ) :   1.4091 B( 43-C , 66-H ) :   0.9363 B( 44-C , 45-C ) :   0.6917 
B( 45-C , 46-C ) :   1.4096 B( 45-C , 62-C ) :   1.4062 B( 46-C , 47-C ) :   1.3791 
B( 46-C , 67-H ) :   0.9203 B( 47-C , 48-C ) :   0.7715 B( 47-C , 54-C ) :   1.3638 
B( 48-C , 49-C ) :   1.3983 B( 48-C , 53-C ) :   1.3023 B( 49-C , 50-C ) :   1.4360 
B( 49-C , 68-H ) :   0.9151 B( 50-C , 51-C ) :   1.3257 B( 50-C , 69-H ) :   0.9097 
B( 51-C , 52-C ) :   1.3791 B( 51-C ,229-N ) :   0.8203 B( 52-C , 53-C ) :   1.3763 
B( 52-C , 70-H ) :   0.9577 B( 53-C , 71-H ) :   0.9440 B( 54-C , 55-C ) :   1.4281 
B( 54-C , 72-H ) :   0.9204 B( 55-C , 56-C ) :   0.6925 B( 55-C , 62-C ) :   1.3996 
B( 56-C , 57-C ) :   1.3663 B( 56-C , 61-C ) :   1.4140 B( 57-C , 58-C ) :   1.3904 
B( 57-C , 73-H ) :   0.9550 B( 58-C , 59-C ) :   1.2309 B( 58-C , 74-H ) :   0.9688 
B( 59-C , 60-C ) :   1.4252 B( 59-C ,311-N ) :   0.8736 B( 60-C , 61-C ) :   1.3979 
B( 60-C , 75-H ) :   0.8808 B( 61-C , 76-H ) :   0.9361 B( 62-C , 77-H ) :   0.9364 
B( 78-C , 79-C ) :   1.3757 B( 78-C , 81-C ) :   1.3324 B( 78-C ,180-N ) :   0.8173 
B( 79-C , 80-C ) :   1.3749 B( 79-C ,102-H ) :   0.9575 B( 80-C , 83-C ) :   1.3134 
B( 80-C ,103-H ) :   0.9444 B( 81-C , 82-C ) :   1.4304 B( 81-C ,104-H ) :   0.9086 
B( 82-C , 83-C ) :   1.3896 B( 82-C ,105-H ) :   0.9163 B( 83-C , 84-C ) :   0.7623 
B( 84-C , 85-C ) :   1.3629 B( 84-C ,101-C ) :   1.3661 B( 85-C , 86-C ) :   1.3960 
B( 85-C ,106-H ) :   0.9093 B( 86-C , 87-C ) :   0.7321 B( 86-C , 93-C ) :   1.3681 
B( 87-C , 88-C ) :   1.2659 B( 87-C , 92-C ) :   1.4202 B( 88-C , 89-C ) :   1.3579 
B( 88-C ,107-H ) :   0.9547 B( 89-C , 90-C ) :   1.3637 B( 89-C ,108-H ) :   0.9610 
B( 90-C , 91-C ) :   1.3131 B( 90-C ,327-N ) :   0.8256 B( 91-C , 92-C ) :   1.3998 
B( 91-C ,109-H ) :   0.9408 B( 92-C ,110-H ) :   0.9257 B( 93-C , 94-C ) :   1.4418 
B( 93-C ,111-H ) :   0.9103 B( 94-C , 95-C ) :   0.6772 B( 94-C ,101-C ) :   1.4197 
B( 95-C , 96-C ) :   1.3984 B( 95-C ,100-C ) :   1.3647 B( 96-C , 97-C ) :   1.4109 
B( 96-C ,112-H ) :   0.9372 B( 97-C , 98-C ) :   1.4205 B( 97-C ,113-H ) :   0.8798 
B( 98-C , 99-C ) :   1.2247 B( 98-C ,294-N ) :   0.8711 B( 99-C ,100-C ) :   1.3917 
B( 99-C ,114-H ) :   0.9697 B(100-C ,115-H ) :   0.9553 B(101-C ,116-H ) :   0.9202 
B(117-C ,118-C ) :   1.4180 B(117-C ,120-C ) :   1.2228 B(117-C ,245-N ) :   0.8733 
B(118-C ,119-C ) :   1.4129 B(118-C ,141-H ) :   0.8786 B(119-C ,122-C ) :   1.3983 
B(119-C ,142-H ) :   0.9360 B(120-C ,121-C ) :   1.3929 B(120-C ,143-H ) :   0.9696 
B(121-C ,122-C ) :   1.3695 B(121-C ,144-H ) :   0.9544 B(122-C ,123-C ) :   0.6816 
B(123-C ,124-C ) :   1.4231 B(123-C ,140-C ) :   1.4278 B(124-C ,125-C ) :   1.3656 
B(124-C ,145-H ) :   0.9200 B(125-C ,126-C ) :   0.7622 B(125-C ,132-C ) :   1.3824 
B(126-C ,127-C ) :   1.3943 B(126-C ,131-C ) :   1.3118 B(127-C ,128-C ) :   1.4315 
B(127-C ,146-H ) :   0.9165 B(128-C ,129-C ) :   1.3289 B(128-C ,147-H ) :   0.9088 
B(129-C ,130-C ) :   1.3755 B(129-C ,278-N ) :   0.8186 B(130-C ,131-C ) :   1.3734 
B(130-C ,148-H ) :   0.9573 B(131-C ,149-H ) :   0.9441 B(132-C ,133-C ) :   1.3976 
B(132-C ,150-H ) :   0.9049 B(133-C ,134-C ) :   0.7588 B(133-C ,140-C ) :   1.3608 
B(134-C ,135-C ) :   1.4126 B(134-C ,139-C ) :   1.3031 B(135-C ,136-C ) :   1.4223 
B(135-C ,151-H ) :   0.9188 B(136-C ,137-C ) :   1.3261 B(136-C ,152-H ) :   0.9095 
B(137-C ,138-C ) :   1.3785 B(137-C ,343-N ) :   0.8173 B(138-C ,139-C ) :   1.3790 
B(138-C ,153-H ) :   0.9581 B(139-C ,154-H ) :   0.9425 B(140-C ,155-H ) :   0.9205 
B(156-Zn,161-N ) :   0.4548 B(156-Zn,164-N ) :   0.3691 B(156-Zn,177-N ) :   0.4619 
B(156-Zn,180-N ) :   0.3714 B(156-Zn,193-N ) :   0.4739 B(156-Zn,196-N ) :   0.3794 
B(157-C ,158-C ) :   0.9022 B(157-C ,166-H ) :   0.9685 B(157-C ,167-H ) :   0.9476 
B(157-C ,168-H ) :   0.9404 B(158-C ,159-C ) :   1.3079 B(158-C ,165-C ) :   1.3395 
B(159-C ,160-C ) :   1.3955 B(159-C ,169-H ) :   0.9326 B(160-C ,161-N ) :   1.3466 
B(160-C ,170-H ) :   0.9361 B(161-N ,162-C ) :   1.2884 B(162-C ,163-C ) :   0.9538 
B(162-C ,164-N ) :  -0.1133 B(162-C ,165-C ) :   1.4312 B(163-C ,164-N ) :   1.8561 
B(163-C ,171-H ) :   0.9067 B(165-C ,172-H ) :   0.8879 B(173-C ,174-C ) :   0.9014 
B(173-C ,182-H ) :   0.9685 B(173-C ,183-H ) :   0.9469 B(173-C ,184-H ) :   0.9403 
B(174-C ,175-C ) :   1.3120 B(174-C ,181-C ) :   1.3366 B(175-C ,176-C ) :   1.3867 
B(175-C ,185-H ) :   0.9335 B(176-C ,177-N ) :   1.3719 B(176-C ,186-H ) :   0.9356 
B(177-N ,178-C ) :   1.2644 B(178-C ,179-C ) :   0.9020 B(178-C ,180-N ) :  -0.1168 
B(178-C ,181-C ) :   1.4511 B(179-C ,180-N ) :   1.8393 B(179-C ,187-H ) :   0.9289 
B(181-C ,188-H ) :   0.8853 B(189-C ,190-C ) :   0.8984 B(189-C ,198-H ) :   0.9452 
B(189-C ,199-H ) :   0.9689 B(189-C ,200-H ) :   0.9435 B(190-C ,191-C ) :   1.3076 
B(190-C ,197-C ) :   1.3421 B(191-C ,192-C ) :   1.3846 B(191-C ,201-H ) :   0.9361 
B(192-C ,193-N ) :   1.3612 B(192-C ,202-H ) :   0.9373 B(193-N ,194-C ) :   1.2683 
B(194-C ,195-C ) :   0.9932 B(194-C ,196-N ) :  -0.1285 B(194-C ,197-C ) :   1.4317 
B(195-C ,196-N ) :   1.8555 B(195-C ,203-H ) :   0.8927 B(197-C ,204-H ) :   0.8868 
B(205-Zn,210-N ) :   0.4544 B(205-Zn,213-N ) :   0.3666 B(205-Zn,226-N ) :   0.4605 
B(205-Zn,229-N ) :   0.3751 B(205-Zn,242-N ) :   0.4746 B(205-Zn,245-N ) :   0.3775 
B(206-C ,207-C ) :   0.9020 B(206-C ,215-H ) :   0.9685 B(206-C ,216-H ) :   0.9477 
B(206-C ,217-H ) :   0.9404 B(207-C ,208-C ) :   1.3081 B(207-C ,214-C ) :   1.3399 
B(208-C ,209-C ) :   1.3949 B(208-C ,218-H ) :   0.9327 B(209-C ,210-N ) :   1.3483 
B(209-C ,219-H ) :   0.9362 B(210-N ,211-C ) :   1.2882 B(211-C ,212-C ) :   0.9535 
B(211-C ,213-N ) :  -0.1136 B(211-C ,214-C ) :   1.4310 B(212-C ,213-N ) :   1.8586 
B(212-C ,220-H ) :   0.9064 B(214-C ,221-H ) :   0.8879 B(222-C ,223-C ) :   0.9014 
B(222-C ,231-H ) :   0.9684 B(222-C ,232-H ) :   0.9468 B(222-C ,233-H ) :   0.9406 
B(223-C ,224-C ) :   1.3115 B(223-C ,230-C ) :   1.3368 B(224-C ,225-C ) :   1.3860 
B(224-C ,234-H ) :   0.9337 B(225-C ,226-N ) :   1.3718 B(225-C ,235-H ) :   0.9361 
B(226-N ,227-C ) :   1.2643 B(227-C ,228-C ) :   0.9018 B(227-C ,229-N ) :  -0.1176 
B(227-C ,230-C ) :   1.4506 B(228-C ,229-N ) :   1.8387 B(228-C ,236-H ) :   0.9296 
B(230-C ,237-H ) :   0.8855 B(238-C ,239-C ) :   0.8978 B(238-C ,247-H ) :   0.9692 
B(238-C ,248-H ) :   0.9434 B(238-C ,249-H ) :   0.9453 B(239-C ,240-C ) :   1.3075 
B(239-C ,246-C ) :   1.3428 B(240-C ,241-C ) :   1.3857 B(240-C ,250-H ) :   0.9359 
B(241-C ,242-N ) :   1.3611 B(241-C ,251-H ) :   0.9369 B(242-N ,243-C ) :   1.2687 
B(243-C ,244-C ) :   0.9940 B(243-C ,245-N ) :  -0.1283 B(243-C ,246-C ) :   1.4309 
B(244-C ,245-N ) :   1.8546 B(244-C ,252-H ) :   0.8933 B(246-C ,253-H ) :   0.8868 
B(254-Zn,259-N ) :   0.4550 B(254-Zn,262-N ) :   0.3683 B(254-Zn,275-N ) :   0.4624 
B(254-Zn,278-N ) :   0.3777 B(254-Zn,291-N ) :   0.4740 B(254-Zn,294-N ) :   0.3741 
B(255-C ,256-C ) :   0.9022 B(255-C ,264-H ) :   0.9685 B(255-C ,265-H ) :   0.9479 
B(255-C ,266-H ) :   0.9401 B(256-C ,257-C ) :   1.3084 B(256-C ,263-C ) :   1.3395 
B(257-C ,258-C ) :   1.3952 B(257-C ,267-H ) :   0.9328 B(258-C ,259-N ) :   1.3475 
B(258-C ,268-H ) :   0.9362 B(259-N ,260-C ) :   1.2885 B(260-C ,261-C ) :   0.9530 
B(260-C ,262-N ) :  -0.1136 B(260-C ,263-C ) :   1.4309 B(261-C ,262-N ) :   1.8569 
B(261-C ,269-H ) :   0.9062 B(263-C ,270-H ) :   0.8879 B(271-C ,272-C ) :   0.9015 
B(271-C ,280-H ) :   0.9685 B(271-C ,281-H ) :   0.9468 B(271-C ,282-H ) :   0.9404 
B(272-C ,273-C ) :   1.3117 B(272-C ,279-C ) :   1.3366 B(273-C ,274-C ) :   1.3862 
B(273-C ,283-H ) :   0.9336 B(274-C ,275-N ) :   1.3701 B(274-C ,284-H ) :   0.9364 
B(275-N ,276-C ) :   1.2644 B(276-C ,277-C ) :   0.8998 B(276-C ,278-N ) :  -0.1168 
B(276-C ,279-C ) :   1.4512 B(277-C ,278-N ) :   1.8366 B(277-C ,285-H ) :   0.9303 
B(279-C ,286-H ) :   0.8855 B(287-C ,288-C ) :   0.8982 B(287-C ,296-H ) :   0.9691 
B(287-C ,297-H ) :   0.9433 B(287-C ,298-H ) :   0.9452 B(288-C ,289-C ) :   1.3079 
B(288-C ,295-C ) :   1.3425 B(289-C ,290-C ) :   1.3853 B(289-C ,299-H ) :   0.9358 
B(290-C ,291-N ) :   1.3623 B(290-C ,300-H ) :   0.9368 B(291-N ,292-C ) :   1.2685 
B(292-C ,293-C ) :   0.9945 B(292-C ,294-N ) :  -0.1290 B(292-C ,295-C ) :   1.4318 
B(293-C ,294-N ) :   1.8570 B(293-C ,301-H ) :   0.8926 B(295-C ,302-H ) :   0.8865 
B(303-Zn,308-N ) :   0.4709 B(303-Zn,311-N ) :   0.3765 B(303-Zn,324-N ) :   0.4525 
B(303-Zn,327-N ) :   0.3792 B(303-Zn,340-N ) :   0.4607 B(303-Zn,343-N ) :   0.3721 
B(304-C ,305-C ) :   0.8974 B(304-C ,313-H ) :   0.9432 B(304-C ,314-H ) :   0.9458 
B(304-C ,315-H ) :   0.9693 B(305-C ,306-C ) :   1.3081 B(305-C ,312-C ) :   1.3426 
B(306-C ,307-C ) :   1.3843 B(306-C ,316-H ) :   0.9364 B(307-C ,308-N ) :   1.3627 
B(307-C ,317-H ) :   0.9372 B(308-N ,309-C ) :   1.2685 B(309-C ,310-C ) :   0.9923 
B(309-C ,311-N ) :  -0.1296 B(309-C ,312-C ) :   1.4315 B(310-C ,311-N ) :   1.8583 
B(310-C ,318-H ) :   0.8931 B(312-C ,319-H ) :   0.8866 B(320-C ,321-C ) :   0.9014 
B(320-C ,329-H ) :   0.9687 B(320-C ,330-H ) :   0.9479 B(320-C ,331-H ) :   0.9406 
B(321-C ,322-C ) :   1.3072 B(321-C ,328-C ) :   1.3396 B(322-C ,323-C ) :   1.3971 
B(322-C ,332-H ) :   0.9329 B(323-C ,324-N ) :   1.3439 B(323-C ,333-H ) :   0.9363 
B(324-N ,325-C ) :   1.2892 B(325-C ,326-C ) :   0.9504 B(325-C ,327-N ) :  -0.1150 
B(325-C ,328-C ) :   1.4313 B(326-C ,327-N ) :   1.8547 B(326-C ,334-H ) :   0.9095 
B(328-C ,335-H ) :   0.8882 B(336-C ,337-C ) :   0.9006 B(336-C ,345-H ) :   0.9410 
B(336-C ,346-H ) :   0.9687 B(336-C ,347-H ) :   0.9467 B(337-C ,338-C ) :   1.3110 
B(337-C ,344-C ) :   1.3379 B(338-C ,339-C ) :   1.3865 B(338-C ,348-H ) :   0.9331 
B(339-C ,340-N ) :   1.3723 B(339-C ,349-H ) :   0.9362 B(340-N ,341-C ) :   1.2657 
B(341-C ,342-C ) :   0.9055 B(341-C ,343-N ) :  -0.1170 B(341-C ,344-C ) :   1.4491 
B(342-C ,343-N ) :   1.8359 B(342-C ,350-H ) :   0.9287 B(344-C ,351-H ) :   0.8858 


-------
TIMINGS
-------

Total SCF time: 0 days 0 hours 14 min 44 sec 

Total time                  ....     884.726 sec
Sum of individual times     ....     836.236 sec  ( 94.5%)

Fock matrix formation       ....     485.905 sec  ( 54.9%)
  Split-RI-J                ....     308.644 sec  ( 63.5% of F)
  XC integration            ....     151.355 sec  ( 31.1% of F)
    Basis function eval.    ....      13.312 sec  (  8.8% of XC)
    Density eval.           ....      87.698 sec  ( 57.9% of XC)
    XC-Functional eval.     ....       3.363 sec  (  2.2% of XC)
    XC-Potential eval.      ....      26.131 sec  ( 17.3% of XC)
Diagonalization             ....     119.115 sec  ( 13.5%)
Density matrix formation    ....      11.138 sec  (  1.3%)
Population analysis         ....      67.346 sec  (  7.6%)
Initial guess               ....      18.295 sec  (  2.1%)
Orbital Transformation      ....       0.000 sec  (  0.0%)
Orbital Orthonormalization  ....       0.000 sec  (  0.0%)
DIIS solution               ....      97.894 sec  ( 11.1%)
Grid generation             ....      36.542 sec  (  4.1%)

Maximum memory used throughout the entire SCF-calculation: 2438.5 MB


-------------------------------------------------------------------------------
                          DFT DISPERSION CORRECTION                            
                                                                               
                                 DFTD4 V2.5                                    
-------------------------------------------------------------------------------
The R2SCAN3C composite method is recognized
Using three-body term ABC
Active option DFTDOPT                   ...         5   

Starting D4
-------------------------   ----------------
Dispersion correction           -0.273374152
-------------------------   ----------------

NOTIFICATION: Different basis set in ORCA and otool_gcp:
ORCA: 4848  gCP: 4840 
If you are NOT using ECPs, check your basis set inputs!
------------------   -----------------
gCP correction             0.165035407
------------------   -----------------

-------------------------   --------------------
FINAL SINGLE POINT ENERGY    -15373.371487321463
-------------------------   --------------------


                            ***************************************
                            *     ORCA property calculations      *
                            ***************************************

                                    ---------------------
                                    Active property flags
                                    ---------------------
   (+) Dipole Moment


------------------------------------------------------------------------------
                       ORCA ELECTRIC PROPERTIES CALCULATION
------------------------------------------------------------------------------

Dipole Moment Calculation                       ... on
Quadrupole Moment Calculation                   ... off
Polarizability Calculation                      ... off
GBWName                                         ... Tetrahedron_l0_ald4_ORCA_DFT.gbw
Electron density                                ... Tetrahedron_l0_ald4_ORCA_DFT.scfp
The origin for moment calculation is the CENTER OF MASS  = ( 0.376218,  0.042916  0.001882)

-------------
DIPOLE MOMENT
-------------
                                X             Y             Z
Electronic contribution:      1.01209      -1.47704      -0.21083
Nuclear contribution   :     -1.23690       2.02346       0.08843
                        -----------------------------------------
Total Dipole Moment    :     -0.22480       0.54642      -0.12241
                        -----------------------------------------
Magnitude (a.u.)       :      0.60340
Magnitude (Debye)      :      1.53373



--------------------
Rotational spectrum 
--------------------
 
Rotational constants in cm-1:     0.000108     0.000107     0.000106 
Rotational constants in MHz :     3.226654     3.197792     3.186084 

 Dipole components along the rotational axes: 
x,y,z [a.u.] :    -0.490447    -0.224997    -0.270063 
x,y,z [Debye]:    -1.246617    -0.571896    -0.686447 

 

Timings for individual modules:

Sum of individual times         ...      908.159 sec (=  15.136 min)
GTO integral calculation        ...       20.748 sec (=   0.346 min)   2.3 %
SCF iterations                  ...      887.410 sec (=  14.790 min)  97.7 %
                             ****ORCA TERMINATED NORMALLY****
TOTAL RUN TIME: 0 days 0 hours 15 minutes 19 seconds 280 msec
