
                                 *****************
                                 * O   R   C   A *
                                 *****************

                                            #,                                       
                                            ###                                      
                                            ####                                     
                                            #####                                    
                                            ######                                   
                                           ########,                                 
                                     ,,################,,,,,                         
                               ,,#################################,,                 
                          ,,##########################################,,             
                       ,#########################################, ''#####,          
                    ,#############################################,,   '####,        
                  ,##################################################,,,,####,       
                ,###########''''           ''''###############################       
              ,#####''   ,,,,##########,,,,          '''####'''          '####       
            ,##' ,,,,###########################,,,                        '##       
           ' ,,###''''                  '''############,,,                           
         ,,##''                                '''############,,,,        ,,,,,,###''
      ,#''                                            '''#######################'''  
     '                                                          ''''####''''         
             ,#######,   #######,   ,#######,      ##                                
            ,#'     '#,  ##    ##  ,#'     '#,    #''#        ######   ,####,        
            ##       ##  ##   ,#'  ##            #'  '#       #        #'  '#        
            ##       ##  #######   ##           ,######,      #####,   #    #        
            '#,     ,#'  ##    ##  '#,     ,#' ,#      #,         ##   #,  ,#        
             '#######'   ##     ##  '#######'  #'      '#     #####' # '####'        



                  #######################################################
                  #                        -***-                        #
                  #          Department of theory and spectroscopy      #
                  #    Directorship and core code : Frank Neese         #
                  #        Max Planck Institute fuer Kohlenforschung    #
                  #                Kaiser Wilhelm Platz 1               #
                  #                 D-45470 Muelheim/Ruhr               #
                  #                      Germany                        #
                  #                                                     #
                  #                  All rights reserved                #
                  #                        -***-                        #
                  #######################################################


                         Program Version 5.0.4 -  RELEASE  -


 With contributions from (in alphabetic order):
   Daniel Aravena         : Magnetic Suceptibility
   Michael Atanasov       : Ab Initio Ligand Field Theory (pilot matlab implementation)
   Alexander A. Auer      : GIAO ZORA, VPT2 properties, NMR spectrum
   Ute Becker             : Parallelization
   Giovanni Bistoni       : ED, misc. LED, open-shell LED, HFLD
   Martin Brehm           : Molecular dynamics
   Dmytro Bykov           : SCF Hessian
   Vijay G. Chilkuri      : MRCI spin determinant printing, contributions to CSF-ICE
   Dipayan Datta          : RHF DLPNO-CCSD density
   Achintya Kumar Dutta   : EOM-CC, STEOM-CC
   Dmitry Ganyushin       : Spin-Orbit,Spin-Spin,Magnetic field MRCI
   Miquel Garcia          : C-PCM and meta-GGA Hessian, CC/C-PCM, Gaussian charge scheme
   Yang Guo               : DLPNO-NEVPT2, F12-NEVPT2, CIM, IAO-localization
   Andreas Hansen         : Spin unrestricted coupled pair/coupled cluster methods
   Benjamin Helmich-Paris : MC-RPA, TRAH-SCF, COSX integrals
   Lee Huntington         : MR-EOM, pCC
   Robert Izsak           : Overlap fitted RIJCOSX, COSX-SCS-MP3, EOM
   Marcus Kettner         : VPT2
   Christian Kollmar      : KDIIS, OOCD, Brueckner-CCSD(T), CCSD density, CASPT2, CASPT2-K
   Simone Kossmann        : Meta GGA functionals, TD-DFT gradient, OOMP2, MP2 Hessian
   Martin Krupicka        : Initial AUTO-CI
   Lucas Lang             : DCDCAS
   Marvin Lechner         : AUTO-CI (C++ implementation), FIC-MRCC
   Dagmar Lenk            : GEPOL surface, SMD
   Dimitrios Liakos       : Extrapolation schemes; Compound Job, initial MDCI parallelization
   Dimitrios Manganas     : Further ROCIS development; embedding schemes
   Dimitrios Pantazis     : SARC Basis sets
   Anastasios Papadopoulos: AUTO-CI, single reference methods and gradients
   Taras Petrenko         : DFT Hessian,TD-DFT gradient, ASA, ECA, R-Raman, ABS, FL, XAS/XES, NRVS
   Peter Pinski           : DLPNO-MP2, DLPNO-MP2 Gradient
   Christoph Reimann      : Effective Core Potentials
   Marius Retegan         : Local ZFS, SOC
   Christoph Riplinger    : Optimizer, TS searches, QM/MM, DLPNO-CCSD(T), (RO)-DLPNO pert. Triples
   Tobias Risthaus        : Range-separated hybrids, TD-DFT gradient, RPA, STAB
   Michael Roemelt        : Original ROCIS implementation
   Masaaki Saitow         : Open-shell DLPNO-CCSD energy and density
   Barbara Sandhoefer     : DKH picture change effects
   Avijit Sen             : IP-ROCIS
   Kantharuban Sivalingam : CASSCF convergence, NEVPT2, FIC-MRCI
   Bernardo de Souza      : ESD, SOC TD-DFT
   Georgi Stoychev        : AutoAux, RI-MP2 NMR, DLPNO-MP2 response
   Willem Van den Heuvel  : Paramagnetic NMR
   Boris Wezisla          : Elementary symmetry handling
   Frank Wennmohs         : Technical directorship


 We gratefully acknowledge several colleagues who have allowed us to
 interface, adapt or use parts of their codes:
   Stefan Grimme, W. Hujo, H. Kruse, P. Pracht,  : VdW corrections, initial TS optimization,
                  C. Bannwarth, S. Ehlert          DFT functionals, gCP, sTDA/sTD-DF
   Ed Valeev, F. Pavosevic, A. Kumar             : LibInt (2-el integral package), F12 methods
   Garnet Chan, S. Sharma, J. Yang, R. Olivares  : DMRG
   Ulf Ekstrom                                   : XCFun DFT Library
   Mihaly Kallay                                 : mrcc  (arbitrary order and MRCC methods)
   Jiri Pittner, Ondrej Demel                    : Mk-CCSD
   Frank Weinhold                                : gennbo (NPA and NBO analysis)
   Christopher J. Cramer and Donald G. Truhlar   : smd solvation model
   Lars Goerigk                                  : TD-DFT with DH, B97 family of functionals
   V. Asgeirsson, H. Jonsson                     : NEB implementation
   FAccTs GmbH                                   : IRC, NEB, NEB-TS, DLPNO-Multilevel, CI-OPT
                                                   MM, QMMM, 2- and 3-layer-ONIOM, Crystal-QMMM,
                                                   LR-CPCM, SF, NACMEs, symmetry and pop. for TD-DFT,
                                                   nearIR, NL-DFT gradient (VV10), updates on ESD,
                                                   ML-optimized integration grids
   S Lehtola, MJT Oliveira, MAL Marques          : LibXC Library
   Liviu Ungur et al                             : ANISO software


 Your calculation uses the libint2 library for the computation of 2-el integrals
 For citations please refer to: http://libint.valeyev.net

 Your ORCA version has been built with support for libXC version: 5.1.0
 For citations please refer to: https://tddft.org/programs/libxc/

 This ORCA versions uses:
   CBLAS   interface :  Fast vector & matrix operations
   LAPACKE interface :  Fast linear algebra routines
   SCALAPACK package :  Parallel linear algebra routines
   Shared memory     :  Shared parallel matrices
   BLAS/LAPACK       :  OpenBLAS 0.3.15  USE64BITINT DYNAMIC_ARCH NO_AFFINITY Prescott SINGLE_THREADED
        Core in use  :  Prescott
   Copyright (c) 2011-2014, The OpenBLAS Project




***************************************
The coordinates will be read from file: /rds/user/pcpt3/hpc-work/CageConstruction/GreenawayCollab/Tetrahedrons_ORCA_DFT/Tetrahedron_l0_ald2_ORCA_DFT/Tetrahedron_l0_ald2_XTB.xyz
***************************************


Your calculation utilizes the geometrical counterpoise correction gCP
Please cite in your paper:
H.Kruse, S. Grimme J.Chem.Phys., 136, (2012), 154101 
   

Your calculation utilizes the atom-pairwise dispersion correction
based on tight binding partial charges (D4)
Cite in your paper:
E.Caldeweyher, C.Bannwarth, S.Grimme, J.Chem.Phys., (2017), 147, 034112.
E.Caldeweyher, S.Ehlert, A.Hansen, H.Neugebauer, S.Grimme, J.Chem.Phys., (2018), in progress.
   

================================================================================

----- Orbital basis set information -----
Your calculation utilizes the basis: def2-mTZVPP
   Stefan Grimme, Andreas Hansen, Sebastian Ehlert, and Jan-Michael Mewes 
   J. Chem. Phys. 154, 000000 (2021). DOI: 10.1063/5.0040021

----- AuxJ basis set information -----
Your calculation utilizes the auxiliary basis: def2/J
   F. Weigend, Phys. Chem. Chem. Phys. 8, 1057 (2006).

================================================================================
                                        WARNINGS
                       Please study these warnings very carefully!
================================================================================

Using LibXC functional ID 497 : Re-regularized SCAN exchange by Furness et al
[ 1]  J. W. Furness, A. D. Kaplan, J. Ning, J. P. Perdew, and J. Sun, J. Phys. Chem. Lett. 11, 8208 (2020)
[ 2]  J. W. Furness, A. D. Kaplan, J. Ning, J. P. Perdew, and J. Sun, J. Phys. Chem. Lett. 11, 9248 (2020)
Using LibXC functional ID 498 : Re-regularized SCAN correlation by Furness et al
[ 1]  J. W. Furness, A. D. Kaplan, J. Ning, J. P. Perdew, and J. Sun, J. Phys. Chem. Lett. 11, 8208 (2020)
[ 2]  J. W. Furness, A. D. Kaplan, J. Ning, J. P. Perdew, and J. Sun, J. Phys. Chem. Lett. 11, 9248 (2020)
Using LibXC functional ID 497 : Re-regularized SCAN exchange by Furness et al
[ 1]  J. W. Furness, A. D. Kaplan, J. Ning, J. P. Perdew, and J. Sun, J. Phys. Chem. Lett. 11, 8208 (2020)
[ 2]  J. W. Furness, A. D. Kaplan, J. Ning, J. P. Perdew, and J. Sun, J. Phys. Chem. Lett. 11, 9248 (2020)
Using LibXC functional ID 498 : Re-regularized SCAN correlation by Furness et al
[ 1]  J. W. Furness, A. D. Kaplan, J. Ning, J. P. Perdew, and J. Sun, J. Phys. Chem. Lett. 11, 8208 (2020)
[ 2]  J. W. Furness, A. D. Kaplan, J. Ning, J. P. Perdew, and J. Sun, J. Phys. Chem. Lett. 11, 9248 (2020)

INFO   : the flag for use of the SHARK integral package has been found!

================================================================================
                                       INPUT FILE
================================================================================
NAME = Tetrahedron_l0_ald2_ORCA_DFT.inp
|  1> ! r2SCAN-3c ENERGY TightSCF def2/J 
|  2> %PAL NPROCS 32 END 
|  3> %maxcore 5316 
|  4> 
|  5> *xyzfile 8 1 /rds/user/pcpt3/hpc-work/CageConstruction/GreenawayCollab/Tetrahedrons_ORCA_DFT/Tetrahedron_l0_ald2_ORCA_DFT/Tetrahedron_l0_ald2_XTB.xyz 
|  6> 
|  7>                          ****END OF INPUT****
================================================================================

                       ****************************
                       * Single Point Calculation *
                       ****************************

---------------------------------
CARTESIAN COORDINATES (ANGSTROEM)
---------------------------------
  C     -1.094500   -2.074800    6.714500
  C     -1.904300   -1.809600    5.607600
  C     -1.630300   -2.387200    4.386600
  C     -0.039500   -2.975200    6.574400
  C      0.211900   -3.569900    5.351800
  C     -0.564600   -3.274100    4.230300
  C     -0.271700   -3.823700    2.895800
  C      1.041700   -3.934800    2.442000
  C      1.310300   -4.355000    1.145400
  C      2.702300   -4.412300    0.633500
  C      3.246100   -3.289800    0.016000
  C      4.522600   -3.315800   -0.509200
  C      5.311600   -4.457700   -0.384700
  C      4.770600   -5.586700    0.231500
  C      3.475000   -5.566200    0.717800
  C      0.257000   -4.648400    0.289300
  C     -1.061900   -4.553300    0.724800
  C     -2.171000   -4.764700   -0.223500
  C     -2.137400   -4.109900   -1.452900
  C     -3.173600   -4.235300   -2.352800
  C     -4.294900   -5.003700   -2.041900
  C     -4.325400   -5.684700   -0.827000
  C     -3.274800   -5.563900    0.067800
  C     -1.313700   -4.157700    2.032700
  H     -2.715000   -1.103100    5.702600
  H     -2.241000   -2.127800    3.535000
  H      0.564500   -3.222000    7.433300
  H      1.014600   -4.286300    5.269600
  H      1.860400   -3.662300    3.091500
  H      2.658500   -2.386600   -0.063200
  H      4.925700   -2.443000   -0.991500
  H      5.358400   -6.490300    0.307100
  H      3.064400   -6.451900    1.178500
  H      0.464500   -4.967600   -0.721700
  H     -1.295500   -3.479800   -1.699500
  H     -3.137600   -3.713200   -3.295300
  H     -5.154700   -6.335900   -0.598400
  H     -3.304100   -6.113500    0.996600
  H     -2.335200   -4.096500    2.377700
  C     -0.842400    1.866900    6.521100
  C     -2.191900    1.528100    6.414600
  C     -2.857600    1.652600    5.210200
  C     -0.193800    2.370700    5.389000
  C     -0.860800    2.480000    4.188500
  C     -2.200100    2.110000    4.067700
  C     -2.856200    2.164100    2.749600
  C     -3.646700    1.104400    2.313100
  C     -4.201300    1.101200    1.036100
  C     -4.963600   -0.066700    0.555300
  C     -4.431300   -1.344200    0.716900
  C     -5.096200   -2.456100    0.245400
  C     -6.310000   -2.325700   -0.430800
  C     -6.856800   -1.052900   -0.584200
  C     -6.191900    0.057600   -0.092400
  C     -3.950700    2.174100    0.187600
  C     -3.154000    3.239300    0.599500
  C     -2.787200    4.300700   -0.356800
  C     -2.315700    3.935100   -1.616300
  C     -1.904800    4.886100   -2.524800
  C     -1.925300    6.241500   -2.193800
  C     -2.422300    6.618500   -0.948000
  C     -2.848900    5.657900   -0.045400
  C     -2.623200    3.232000    1.884900
  H     -2.720100    1.197500    7.295600
  H     -3.908600    1.410500    5.155900
  H      0.852300    2.631400    5.437600
  H     -0.325000    2.831800    3.319500
  H     -3.825900    0.266800    2.970800
  H     -3.473900   -1.466000    1.202500
  H     -4.660500   -3.435200    0.365900
  H     -7.819300   -0.939900   -1.059400
  H     -6.641000    1.034000   -0.197400
  H     -4.369900    2.176500   -0.808000
  H     -2.253300    2.889700   -1.880100
  H     -1.526900    4.585100   -3.489100
  H     -2.502200    7.665300   -0.698300
  H     -3.249300    5.967800    0.908200
  H     -2.014000    4.061600    2.211900
  C      2.187900    0.069300    6.527400
  C      3.368000    0.809100    6.443600
  C      3.797700    1.307000    5.225800
  C      1.447100   -0.149800    5.367600
  C      1.903600    0.315400    4.150600
  C      3.081400    1.051500    4.060800
  C      3.513200    1.569400    2.738600
  C      3.017200    2.786100    2.288800
  C      3.363300    3.275100    1.032000
  C      2.748400    4.516300    0.526600
  C      1.366000    4.665900    0.615700
  C      0.739000    5.785800    0.113900
  C      1.474200    6.787500   -0.519000
  C      2.859600    6.660000   -0.589000
  C      3.484600    5.537300   -0.071500
  C      4.212600    2.525900    0.227100
  C      4.690200    1.285200    0.645100
  C      5.471400    0.444600   -0.277900
  C      5.122200    0.404300   -1.628200
  C      5.792700   -0.411000   -2.514200
  C      6.820300   -1.246500   -2.069900
  C      7.190900   -1.199200   -0.726800
  C      6.530000   -0.358500    0.149600
  C      4.340100    0.819700    1.911600
  H      3.936800    1.015500    7.338900
  H      4.704800    1.890300    5.178400
  H      0.530700   -0.710300    5.421900
  H      1.331600    0.111900    3.256900
  H      2.367400    3.366100    2.927800
  H      0.772600    3.885600    1.069200
  H     -0.332700    5.881500    0.181000
  H      3.450000    7.455400   -1.016600
  H      4.560800    5.462400   -0.115600
  H      4.493700    2.908900   -0.742700
  H      4.299000    1.003400   -1.987000
  H      5.489300   -0.450600   -3.549500
  H      8.012600   -1.806900   -0.381900
  H      6.850100   -0.313900    1.179100
  H      4.686800   -0.147500    2.244400
  C     -5.228700   -1.862400   -4.019500
  C     -4.413900   -2.428700   -4.997600
  C     -3.108400   -1.993700   -5.158000
  C     -4.716000   -0.826700   -3.237800
  C     -3.411700   -0.410000   -3.391800
  C     -2.579900   -0.990200   -4.347800
  C     -1.174500   -0.549600   -4.427500
  C     -0.139600   -1.477900   -4.391700
  C      1.190300   -1.065400   -4.331100
  C      2.275100   -2.051200   -4.181400
  C      2.116300   -3.126100   -3.306900
  C      3.136400   -4.025300   -3.086000
  C      4.371300   -3.872800   -3.724600
  C      4.524500   -2.818700   -4.626000
  C      3.492300   -1.928300   -4.852200
  C      1.472800    0.297900   -4.323500
  C      0.451600    1.242600   -4.375900
  C      0.759900    2.682000   -4.278800
  C      1.614000    3.132000   -3.274000
  C      1.894500    4.473800   -3.127800
  C      1.306700    5.419500   -3.969100
  C      0.462700    4.976900   -4.986200
  C      0.199600    3.626100   -5.138300
  C     -0.868700    0.808900   -4.429600
  H     -4.812600   -3.188800   -5.651800
  H     -2.496400   -2.429500   -5.933500
  H     -5.341200   -0.378300   -2.481800
  H     -3.024800    0.366100   -2.748100
  H     -0.372400   -2.532400   -4.401200
  H      1.187300   -3.242100   -2.768900
  H      2.991400   -4.824400   -2.375300
  H      5.451000   -2.726400   -5.171400
  H      3.622200   -1.135700   -5.574100
  H      2.499000    0.629200   -4.266800
  H      2.049500    2.421900   -2.586100
  H      2.545500    4.804100   -2.334100
  H      0.041000    5.690700   -5.677300
  H     -0.436500    3.297600   -5.946700
  H     -1.668000    1.534700   -4.462000
  Zn    -0.051400   -0.084900    9.026100
  N     -1.334400   -1.394300    7.912000
  C     -2.521500   -1.386000    8.380700
  C     -2.913700   -0.570100    9.507200
  C     -4.183500   -0.728000   10.052500
  C     -4.563600    0.082200   11.116000
  C     -3.677400    1.049500   11.537900
  C     -2.418000    1.173900   10.926200
  C     -1.528300    2.275100   11.377900
  N     -2.029200    0.346900    9.958800
  H     -3.308800   -1.995800    7.935700
  H     -4.853300   -1.476600    9.660100
  H     -5.529700   -0.030500   11.582000
  H     -3.939200    1.724800   12.337200
  H     -0.759800    2.487900   10.644800
  H     -2.117200    3.173300   11.551900
  H     -1.060200    2.016400   12.326800
  N      1.739700   -0.498900    7.729700
  C      2.564700   -1.186800    8.416000
  C      2.169300   -1.929800    9.592400
  C      3.090900   -2.793700   10.176600
  C      2.682000   -3.609100   11.224500
  C      1.365900   -3.530500   11.627000
  C      0.495500   -2.616500   11.012400
  C     -0.909100   -2.557900   11.497400
  N      0.896300   -1.821400   10.023700
  H      3.597600   -1.326600    8.091300
  H      4.104800   -2.832600    9.811000
  H      3.371300   -4.287900   11.701500
  H      0.993200   -4.157800   12.421300
  H     -1.439700   -3.457100   11.183700
  H     -0.932700   -2.542600   12.585400
  H     -1.429400   -1.690600   11.110600
  N     -0.162700    1.665100    7.722500
  C      0.773400    2.466700    8.061500
  C      1.555800    2.300400    9.265600
  C      2.567500    3.212200    9.551900
  C      3.266700    3.089900   10.746000
  C      2.878800    2.102000   11.626700
  C      1.834400    1.229000   11.287000
  C      1.367700    0.247900   12.302700
  N      1.227100    1.297800   10.105300
  H      1.001200    3.359500    7.479100
  H      2.795100    4.005100    8.857300
  H      4.066300    3.770700   10.992600
  H      3.357100    2.001500   12.588300
  H      2.089700   -0.560100   12.417300
  H      1.294700    0.738000   13.272400
  H      0.400800   -0.163700   12.033300
  Zn    -7.358300   -4.159100   -2.971300
  N     -5.353700   -5.068600   -2.963400
  C     -5.095900   -5.522100   -4.125500
  C     -6.054700   -5.544700   -5.209000
  C     -5.694200   -6.167300   -6.400500
  C     -6.588100   -6.162300   -7.463800
  C     -7.797900   -5.527100   -7.284300
  C     -8.105000   -4.929600   -6.051600
  C     -9.434900   -4.278900   -5.910000
  N     -7.248000   -4.942400   -5.032200
  H     -4.110600   -5.928600   -4.361600
  H     -4.734100   -6.650600   -6.490000
  H     -6.342300   -6.639800   -8.399200
  H     -8.523700   -5.487400   -8.081200
  H     -9.452600   -3.352000   -6.483700
  H    -10.211200   -4.919400   -6.325400
  H     -9.665800   -4.056400   -4.875600
  N     -6.952900   -3.465400   -0.934800
  C     -7.149800   -4.440500   -0.137400
  C     -7.731000   -5.702200   -0.544600
  C     -7.986000   -6.663800    0.429400
  C     -8.534400   -7.881700    0.049100
  C     -8.811300   -8.076100   -1.287500
  C     -8.545700   -7.059100   -2.217300
  C     -8.889500   -7.299300   -3.644000
  N     -8.006800   -5.898600   -1.849400
  H     -6.901500   -4.357800    0.922300
  H     -7.763500   -6.458500    1.464600
  H     -8.744000   -8.648600    0.778100
  H     -9.241500   -9.003900   -1.630100
  H     -8.066200   -7.813500   -4.141000
  H     -9.761100   -7.945400   -3.718700
  H     -9.083800   -6.369100   -4.165000
  N     -6.543300   -2.298900   -3.792300
  C     -7.473100   -1.429300   -3.856900
  C     -8.851500   -1.702000   -3.512300
  C     -9.807600   -0.717500   -3.748700
  C    -11.125200   -0.957700   -3.384800
  C    -11.418900   -2.159300   -2.772400
  C    -10.409400   -3.108800   -2.560500
  C    -10.757200   -4.395000   -1.897300
  N     -9.151500   -2.887100   -2.946300
  H     -7.263100   -0.408300   -4.180800
  H     -9.523800    0.212500   -4.215200
  H    -11.894900   -0.224100   -3.566400
  H    -12.426300   -2.378200   -2.456200
  H    -10.135300   -4.549400   -1.018700
  H    -11.798300   -4.394500   -1.588300
  H    -10.606400   -5.231400   -2.576400
  Zn     7.515800   -4.278600   -2.913800
  N      6.635800   -4.414600   -0.847100
  C      7.563400   -4.784000   -0.054900
  C      8.966000   -4.645000   -0.380400
  C      9.909500   -4.905500    0.609000
  C     11.249700   -4.648100    0.348400
  C     11.578500   -4.127900   -0.885100
  C     10.579400   -3.914800   -1.847900
  C     10.989800   -3.369900   -3.169300
  N      9.299500   -4.183700   -1.602800
  H      7.343000   -5.137100    0.954400
  H      9.598400   -5.292900    1.566200
  H     12.007000   -4.841500    1.091800
  H     12.601900   -3.889900   -1.128900
  H     11.276800   -2.324100   -3.057700
  H     11.866100   -3.898300   -3.540300
  H     10.189600   -3.438500   -3.895600
  N      5.444400   -4.720800   -3.450400
  C      5.225400   -5.952200   -3.186900
  C      6.276800   -6.884700   -2.848200
  C      5.949100   -8.206700   -2.562500
  C      6.969800   -9.114600   -2.310400
  C      8.272000   -8.673500   -2.419300
  C      8.534900   -7.331800   -2.733800
  C      9.945700   -6.915000   -2.952700
  N      7.552100   -6.448500   -2.889000
  H      4.226300   -6.382900   -3.254300
  H      4.916700   -8.517900   -2.547000
  H      6.750400  -10.143400   -2.071600
  H      9.097900   -9.354100   -2.284200
  H     10.454500   -7.663700   -3.557800
  H      9.996100   -5.953100   -3.452100
  H     10.483000   -6.863900   -2.006200
  N      7.410800   -2.137200   -2.971300
  C      7.829400   -1.684400   -4.088800
  C      8.289200   -2.540100   -5.158700
  C      8.870700   -1.968100   -6.285400
  C      9.282200   -2.796400   -7.323000
  C      9.033700   -4.146900   -7.206600
  C      8.417400   -4.658400   -6.051500
  C      8.114200   -6.112500   -6.007900
  N      8.094300   -3.871300   -5.028100
  H      7.846900   -0.613100   -4.293300
  H      9.008500   -0.900100   -6.342100
  H      9.762300   -2.391200   -8.199700
  H      9.303400   -4.826500   -7.999600
  H      7.365400   -6.337500   -5.258400
  H      7.757400   -6.441100   -6.981900
  H      9.019300   -6.680300   -5.795900
  Zn     0.328800    8.462800   -3.136000
  N     -1.443100    7.175700   -3.123800
  C     -1.966800    7.175500   -4.285900
  C     -1.481800    7.983000   -5.384000
  C     -2.210900    8.006500   -6.570200
  C     -1.731400    8.748700   -7.640400
  C     -0.528600    9.407400   -7.484200
  C      0.158700    9.342100   -6.263800
  C      1.453500   10.062900   -6.126200
  N     -0.325900    8.656800   -5.226500
  H     -2.827900    6.544000   -4.511800
  H     -3.137700    7.460500   -6.647400
  H     -2.277200    8.802000   -8.569200
  H     -0.110600    9.979700   -8.296900
  H      2.239400    9.376500   -5.819700
  H      1.739200   10.515800   -7.071000
  H      1.377300   10.852500   -5.381800
  N      0.795400    7.892000   -1.061300
  C      0.102200    8.605400   -0.265700
  C     -0.736400    9.703300   -0.696000
  C     -1.359300   10.482000    0.275100
  C     -2.200000   11.514000   -0.122200
  C     -2.382100   11.711400   -1.473900
  C     -1.712700   10.898200   -2.402100
  C     -1.930700   11.173500   -3.847400
  N     -0.901900    9.914200   -2.017300
  H      0.112400    8.415500    0.809300
  H     -1.183900   10.285800    1.321100
  H     -2.694400   12.139500    0.604300
  H     -3.031300   12.493600   -1.834800
  H     -2.935400   10.860700   -4.132800
  H     -1.869800   12.243700   -4.038000
  H     -1.211300   10.654600   -4.468700
  N      1.575400    6.782600   -3.780500
  C      2.795600    7.146500   -3.714400
  C      3.211400    8.506600   -3.445100
  C      4.569700    8.809300   -3.488000
  C      4.981000   10.108700   -3.221700
  C      4.012200   11.046800   -2.934900
  C      2.657600   10.680300   -2.924200
  C      1.643900   11.730900   -2.641500
  N      2.269700    9.430000   -3.166300
  H      3.603900    6.432700   -3.883500
  H      5.288200    8.042200   -3.730500
  H      6.025500   10.377000   -3.246200
  H      4.282800   12.069700   -2.725700
  H      1.507700   11.832700   -1.564400
  H      1.985200   12.694500   -3.012700
  H      0.688400   11.488400   -3.091600

----------------------------
CARTESIAN COORDINATES (A.U.)
----------------------------
  NO LB      ZA    FRAG     MASS         X           Y           Z
   0 C     6.0000    0    12.011   -2.068305   -3.920804   12.688566
   1 C     6.0000    0    12.011   -3.598605   -3.419648   10.596828
   2 C     6.0000    0    12.011   -3.080821   -4.511154    8.289473
   3 C     6.0000    0    12.011   -0.074644   -5.622313   12.423815
   4 C     6.0000    0    12.011    0.400433   -6.746133   10.113436
   5 C     6.0000    0    12.011   -1.066939   -6.187152    7.994108
   6 C     6.0000    0    12.011   -0.513439   -7.225746    5.472269
   7 C     6.0000    0    12.011    1.968528   -7.435694    4.614711
   8 C     6.0000    0    12.011    2.476108   -8.229757    2.164492
   9 C     6.0000    0    12.011    5.106607   -8.338039    1.197142
  10 C     6.0000    0    12.011    6.134240   -6.216821    0.030236
  11 C     6.0000    0    12.011    8.546475   -6.265954   -0.962249
  12 C     6.0000    0    12.011   10.037469   -8.423832   -0.726978
  13 C     6.0000    0    12.011    9.015127  -10.557333    0.437472
  14 C     6.0000    0    12.011    6.566798  -10.518594    1.356445
  15 C     6.0000    0    12.011    0.485660   -8.784203    0.546698
  16 C     6.0000    0    12.011   -2.006700   -8.604490    1.369674
  17 C     6.0000    0    12.011   -4.102595   -9.003978   -0.422354
  18 C     6.0000    0    12.011   -4.039101   -7.766585   -2.745583
  19 C     6.0000    0    12.011   -5.997235   -8.003557   -4.446148
  20 C     6.0000    0    12.011   -8.116185   -9.455623   -3.858632
  21 C     6.0000    0    12.011   -8.173821  -10.742526   -1.562804
  22 C     6.0000    0    12.011   -6.188475  -10.514247    0.128123
  23 C     6.0000    0    12.011   -2.482533   -7.856914    3.841246
  24 H     1.0000    0     1.008   -5.130606   -2.084557   10.776352
  25 H     1.0000    0     1.008   -4.234876   -4.020959    6.680182
  26 H     1.0000    0     1.008    1.066750   -6.088698   14.046901
  27 H     1.0000    0     1.008    1.917316   -8.099933    9.958101
  28 H     1.0000    0     1.008    3.515646   -6.920744    5.842088
  29 H     1.0000    0     1.008    5.023837   -4.510020   -0.119431
  30 H     1.0000    0     1.008    9.308224   -4.616601   -1.873663
  31 H     1.0000    0     1.008   10.125909  -12.264890    0.580335
  32 H     1.0000    0     1.008    5.790877  -12.192324    2.227042
  33 H     1.0000    0     1.008    0.877778   -9.387404   -1.363815
  34 H     1.0000    0     1.008   -2.448140   -6.575869   -3.211590
  35 H     1.0000    0     1.008   -5.929205   -7.016931   -6.227215
  36 H     1.0000    0     1.008   -9.740971  -11.973116   -1.130812
  37 H     1.0000    0     1.008   -6.243844  -11.552841    1.883301
  38 H     1.0000    0     1.008   -4.412888   -7.741263    4.493202
  39 C     6.0000    0    12.011   -1.591905    3.527930   12.323093
  40 C     6.0000    0    12.011   -4.142091    2.887691   12.121837
  41 C     6.0000    0    12.011   -5.400081    3.122961    9.845851
  42 C     6.0000    0    12.011   -0.366229    4.479974   10.183734
  43 C     6.0000    0    12.011   -1.626676    4.686521    7.915118
  44 C     6.0000    0    12.011   -4.157586    3.987322    7.686839
  45 C     6.0000    0    12.011   -5.397436    4.089556    5.195991
  46 C     6.0000    0    12.011   -6.891264    2.087014    4.371126
  47 C     6.0000    0    12.011   -7.939306    2.080966    1.957945
  48 C     6.0000    0    12.011   -9.379845   -0.126045    1.049365
  49 C     6.0000    0    12.011   -8.373943   -2.540170    1.354745
  50 C     6.0000    0    12.011   -9.630422   -4.641356    0.463739
  51 C     6.0000    0    12.011  -11.924172   -4.394936   -0.814094
  52 C     6.0000    0    12.011  -12.957474   -1.989693   -1.103978
  53 C     6.0000    0    12.011  -11.700995    0.108848   -0.174611
  54 C     6.0000    0    12.011   -7.465741    4.108454    0.354513
  55 C     6.0000    0    12.011   -5.960196    6.121390    1.132891
  56 C     6.0000    0    12.011   -5.267045    8.127145   -0.674254
  57 C     6.0000    0    12.011   -4.376039    7.436261   -3.054364
  58 C     6.0000    0    12.011   -3.599550    9.233391   -4.771181
  59 C     6.0000    0    12.011   -3.638290   11.794726   -4.145681
  60 C     6.0000    0    12.011   -4.577484   12.507152   -1.791460
  61 C     6.0000    0    12.011   -5.383641   10.691881   -0.085794
  62 C     6.0000    0    12.011   -4.957130    6.107595    3.561945
  63 H     1.0000    0     1.008   -5.140244    2.262947   13.786686
  64 H     1.0000    0     1.008   -7.386184    2.665459    9.743239
  65 H     1.0000    0     1.008    1.610614    4.972625   10.275575
  66 H     1.0000    0     1.008   -0.614161    5.351326    6.272946
  67 H     1.0000    0     1.008   -7.229903    0.504179    5.613998
  68 H     1.0000    0     1.008   -6.564720   -2.770339    2.272396
  69 H     1.0000    0     1.008   -8.807069   -6.491587    0.691451
  70 H     1.0000    0     1.008  -14.776336   -1.776154   -2.001976
  71 H     1.0000    0     1.008  -12.549671    1.953977   -0.373032
  72 H     1.0000    0     1.008   -8.257914    4.112989   -1.526899
  73 H     1.0000    0     1.008   -4.258120    5.460742   -3.552874
  74 H     1.0000    0     1.008   -2.885423    8.664583   -6.593443
  75 H     1.0000    0     1.008   -4.728473   14.485318   -1.319596
  76 H     1.0000    0     1.008   -6.140287   11.277508    1.716249
  77 H     1.0000    0     1.008   -3.805908    7.675312    4.179885
  78 C     6.0000    0    12.011    4.134532    0.130958   12.334998
  79 C     6.0000    0    12.011    6.364598    1.528977   12.176639
  80 C     6.0000    0    12.011    7.176613    2.469872    9.875331
  81 C     6.0000    0    12.011    2.734623   -0.283081   10.143294
  82 C     6.0000    0    12.011    3.597283    0.596020    7.843497
  83 C     6.0000    0    12.011    5.823002    1.987047    7.673800
  84 C     6.0000    0    12.011    6.638986    2.965736    5.175204
  85 C     6.0000    0    12.011    5.701682    5.264966    4.325205
  86 C     6.0000    0    12.011    6.355716    6.189042    1.950197
  87 C     6.0000    0    12.011    5.193723    8.534570    0.995130
  88 C     6.0000    0    12.011    2.581366    8.817273    1.163504
  89 C     6.0000    0    12.011    1.396508   10.933577    0.215240
  90 C     6.0000    0    12.011    2.785834   12.826516   -0.980768
  91 C     6.0000    0    12.011    5.403861   12.585576   -1.113049
  92 C     6.0000    0    12.011    6.584940   10.463981   -0.135115
  93 C     6.0000    0    12.011    7.960660    4.773259    0.429157
  94 C     6.0000    0    12.011    8.863194    2.428676    1.219062
  95 C     6.0000    0    12.011   10.339448    0.840172   -0.525155
  96 C     6.0000    0    12.011    9.679555    0.764016   -3.076852
  97 C     6.0000    0    12.011   10.946617   -0.776677   -4.751149
  98 C     6.0000    0    12.011   12.888499   -2.355544   -3.911544
  99 C     6.0000    0    12.011   13.588832   -2.266160   -1.373453
 100 C     6.0000    0    12.011   12.339912   -0.677467    0.282703
 101 C     6.0000    0    12.011    8.201600    1.549009    3.612400
 102 H     1.0000    0     1.008    7.439474    1.919017   13.868511
 103 H     1.0000    0     1.008    8.890784    3.572149    9.785758
 104 H     1.0000    0     1.008    1.002878   -1.342272   10.245906
 105 H     1.0000    0     1.008    2.516359    0.211460    6.154649
 106 H     1.0000    0     1.008    4.473738    6.361007    5.532740
 107 H     1.0000    0     1.008    1.460002    7.342720    2.020495
 108 H     1.0000    0     1.008   -0.628712   11.114424    0.342040
 109 H     1.0000    0     1.008    6.519555   14.088664   -1.921096
 110 H     1.0000    0     1.008    8.618663   10.322440   -0.218452
 111 H     1.0000    0     1.008    8.491862    5.497024   -1.403500
 112 H     1.0000    0     1.008    8.123933    1.896151   -3.754886
 113 H     1.0000    0     1.008   10.373274   -0.851511   -6.707583
 114 H     1.0000    0     1.008   15.141620   -3.414546   -0.721686
 115 H     1.0000    0     1.008   12.944813   -0.593185    2.228176
 116 H     1.0000    0     1.008    8.856768   -0.278735    4.241301
 117 C     6.0000    0    12.011   -9.880811   -3.519426   -7.595754
 118 C     6.0000    0    12.011   -8.341062   -4.589578   -9.444095
 119 C     6.0000    0    12.011   -5.874025   -3.767547   -9.747207
 120 C     6.0000    0    12.011   -8.911948   -1.562237   -6.118555
 121 C     6.0000    0    12.011   -6.447179   -0.774788   -6.409573
 122 C     6.0000    0    12.011   -4.875304   -1.871207   -8.216151
 123 C     6.0000    0    12.011   -2.219483   -1.038593   -8.366762
 124 C     6.0000    0    12.011   -0.263806   -2.792826   -8.299110
 125 C     6.0000    0    12.011    2.249341   -2.013314   -8.184593
 126 C     6.0000    0    12.011    4.299316   -3.876206   -7.901701
 127 C     6.0000    0    12.011    3.999227   -5.907473   -6.249135
 128 C     6.0000    0    12.011    5.926937   -7.606715   -5.831695
 129 C     6.0000    0    12.011    8.260560   -7.318531   -7.038474
 130 C     6.0000    0    12.011    8.550066   -5.326571   -8.741873
 131 C     6.0000    0    12.011    6.599491   -3.643959   -9.169329
 132 C     6.0000    0    12.011    2.783189    0.562949   -8.170231
 133 C     6.0000    0    12.011    0.853400    2.348174   -8.269253
 134 C     6.0000    0    12.011    1.436003    5.068245   -8.085760
 135 C     6.0000    0    12.011    3.050018    5.918622   -6.186963
 136 C     6.0000    0    12.011    3.580086    8.454257   -5.910685
 137 C     6.0000    0    12.011    2.469305   10.241371   -7.500512
 138 C     6.0000    0    12.011    0.874376    9.404978   -9.422552
 139 C     6.0000    0    12.011    0.377189    6.852336   -9.709980
 140 C     6.0000    0    12.011   -1.641605    1.528599   -8.370731
 141 H     1.0000    0     1.008   -9.094496   -6.025959  -10.680354
 142 H     1.0000    0     1.008   -4.717512   -4.591090  -11.212690
 143 H     1.0000    0     1.008  -10.093405   -0.714883   -4.689922
 144 H     1.0000    0     1.008   -5.716044    0.691829   -5.193156
 145 H     1.0000    0     1.008   -0.703734   -4.785542   -8.317063
 146 H     1.0000    0     1.008    2.243672   -6.126681   -5.232463
 147 H     1.0000    0     1.008    5.652927   -9.116795   -4.488666
 148 H     1.0000    0     1.008   10.300897   -5.152149   -9.772530
 149 H     1.0000    0     1.008    6.844966   -2.146162  -10.533522
 150 H     1.0000    0     1.008    4.722426    1.189016   -8.063083
 151 H     1.0000    0     1.008    3.872994    4.576728   -4.887021
 152 H     1.0000    0     1.008    4.810298    9.078433   -4.410810
 153 H     1.0000    0     1.008    0.077479   10.753865  -10.728542
 154 H     1.0000    0     1.008   -0.824865    6.231561  -11.237634
 155 H     1.0000    0     1.008   -3.152063    2.900163   -8.431958
 156 Zn   30.0000    0    65.380   -0.097132   -0.160438   17.056857
 157 N     7.0000    0    14.007   -2.521651   -2.634845   14.951513
 158 C     6.0000    0    12.011   -4.764944   -2.619160   15.837228
 159 C     6.0000    0    12.011   -5.506095   -1.077333   17.966004
 160 C     6.0000    0    12.011   -7.905669   -1.375721   18.996472
 161 C     6.0000    0    12.011   -8.623954    0.155335   21.006196
 162 C     6.0000    0    12.011   -6.949279    1.983268   21.803471
 163 C     6.0000    0    12.011   -4.569358    2.218350   20.647526
 164 C     6.0000    0    12.011   -2.888068    4.299316   21.501115
 165 N     7.0000    0    14.007   -3.834632    0.655546   18.819405
 166 H     1.0000    0     1.008   -6.252726   -3.771515   14.996300
 167 H     1.0000    0     1.008   -9.171408   -2.790370   18.254943
 168 H     1.0000    0     1.008  -10.449619   -0.057637   21.886808
 169 H     1.0000    0     1.008   -7.444009    3.259400   23.313929
 170 H     1.0000    0     1.008   -1.435814    4.701450   20.115757
 171 H     1.0000    0     1.008   -4.000928    5.996668   21.829927
 172 H     1.0000    0     1.008   -2.003488    3.810444   23.294276
 173 N     7.0000    0    14.007    3.287557   -0.942784   14.607016
 174 C     6.0000    0    12.011    4.846581   -2.242727   15.903935
 175 C     6.0000    0    12.011    4.099383   -3.646793   18.127009
 176 C     6.0000    0    12.011    5.840955   -5.279328   19.230987
 177 C     6.0000    0    12.011    5.068245   -6.820211   21.211231
 178 C     6.0000    0    12.011    2.581177   -6.671678   21.971846
 179 C     6.0000    0    12.011    0.936359   -4.944468   20.810420
 180 C     6.0000    0    12.011   -1.717950   -4.833730   21.726937
 181 N     7.0000    0    14.007    1.693762   -3.441947   18.942048
 182 H     1.0000    0     1.008    6.798479   -2.506911   15.290341
 183 H     1.0000    0     1.008    7.756948   -5.352838   18.540103
 184 H     1.0000    0     1.008    6.370834   -8.102957   22.112630
 185 H     1.0000    0     1.008    1.876876   -7.857103   23.472855
 186 H     1.0000    0     1.008   -2.720639   -6.532972   21.134130
 187 H     1.0000    0     1.008   -1.762548   -4.804818   23.782959
 188 H     1.0000    0     1.008   -2.701175   -3.194771   20.995991
 189 N     7.0000    0    14.007   -0.307458    3.146583   14.593410
 190 C     6.0000    0    12.011    1.461514    4.661387   15.234027
 191 C     6.0000    0    12.011    2.940036    4.347126   17.509446
 192 C     6.0000    0    12.011    4.851872    6.070178   18.050475
 193 C     6.0000    0    12.011    6.173168    5.839065   20.306997
 194 C     6.0000    0    12.011    5.440144    3.972204   21.971279
 195 C     6.0000    0    12.011    3.466514    2.322473   21.329339
 196 C     6.0000    0    12.011    2.584578    0.468463   23.248734
 197 N     7.0000    0    14.007    2.318883    2.452487   19.096250
 198 H     1.0000    0     1.008    1.891994    6.348535   14.133451
 199 H     1.0000    0     1.008    5.281974    7.568542   16.737871
 200 H     1.0000    0     1.008    7.684193    7.125590   20.773003
 201 H     1.0000    0     1.008    6.344000    3.782287   23.788439
 202 H     1.0000    0     1.008    3.948961   -1.058436   23.465296
 203 H     1.0000    0     1.008    2.446628    1.394618   25.081201
 204 H     1.0000    0     1.008    0.757402   -0.309348   22.739641
 205 Zn   30.0000    0    65.380  -13.905172   -7.859560   -5.614943
 206 N     7.0000    0    14.007  -10.117027   -9.578266   -5.600014
 207 C     6.0000    0    12.011   -9.629855  -10.435257   -7.796065
 208 C     6.0000    0    12.011  -11.441725  -10.477964   -9.843583
 209 C     6.0000    0    12.011  -10.760479  -11.654508  -12.095192
 210 C     6.0000    0    12.011  -12.449705  -11.645059  -14.104538
 211 C     6.0000    0    12.011  -14.735895  -10.444705  -13.765332
 212 C     6.0000    0    12.011  -15.316230   -9.315594  -11.435867
 213 C     6.0000    0    12.011  -17.829377   -8.085949  -11.168281
 214 N     7.0000    0    14.007  -13.696735   -9.339782   -9.509480
 215 H     1.0000    0     1.008   -7.767908  -11.203430   -8.242230
 216 H     1.0000    0     1.008   -8.946152  -12.567813  -12.264323
 217 H     1.0000    0     1.008  -11.985210  -12.547404  -15.872188
 218 H     1.0000    0     1.008  -16.107459  -10.369683  -15.271255
 219 H     1.0000    0     1.008  -17.862825   -6.334362  -12.252417
 220 H     1.0000    0     1.008  -19.296371   -9.296319  -11.953274
 221 H     1.0000    0     1.008  -18.265715   -7.665485   -9.213549
 222 N     7.0000    0    14.007  -13.139077   -6.548657   -1.766516
 223 C     6.0000    0    12.011  -13.511164   -8.391329   -0.259648
 224 C     6.0000    0    12.011  -14.609473  -10.775596   -1.029145
 225 C     6.0000    0    12.011  -15.091353  -12.592757    0.811448
 226 C     6.0000    0    12.011  -16.127679  -14.894254    0.092786
 227 C     6.0000    0    12.011  -16.650944  -15.261617   -2.433022
 228 C     6.0000    0    12.011  -16.149033  -13.339766   -4.190090
 229 C     6.0000    0    12.011  -16.798720  -13.793678   -6.886162
 230 N     7.0000    0    14.007  -15.130659  -11.146739   -3.494860
 231 H     1.0000    0     1.008  -13.041945   -8.235049    1.742894
 232 H     1.0000    0     1.008  -14.670889  -12.204796    2.767693
 233 H     1.0000    0     1.008  -16.523765  -16.343485    1.470396
 234 H     1.0000    0     1.008  -17.463904  -17.014905   -3.080443
 235 H     1.0000    0     1.008  -15.242909  -14.765375   -7.825356
 236 H     1.0000    0     1.008  -18.445806  -15.014630   -7.027325
 237 H     1.0000    0     1.008  -17.165894  -12.035855   -7.870709
 238 N     7.0000    0    14.007  -12.365045   -4.344291   -7.166408
 239 C     6.0000    0    12.011  -14.122112   -2.700986   -7.288485
 240 C     6.0000    0    12.011  -16.726911   -3.216314   -6.637285
 241 C     6.0000    0    12.011  -18.533678   -1.355879   -7.084016
 242 C     6.0000    0    12.011  -21.023581   -1.809791   -6.396345
 243 C     6.0000    0    12.011  -21.578594   -4.080486   -5.239077
 244 C     6.0000    0    12.011  -19.670915   -5.874781   -4.838644
 245 C     6.0000    0    12.011  -20.328162   -8.305346   -3.585377
 246 N     7.0000    0    14.007  -17.293829   -5.455828   -5.567700
 247 H     1.0000    0     1.008  -13.725270   -0.771575   -7.900567
 248 H     1.0000    0     1.008  -17.997374    0.401567   -7.965574
 249 H     1.0000    0     1.008  -22.478103   -0.423488   -6.739519
 250 H     1.0000    0     1.008  -23.482304   -4.494147   -4.641545
 251 H     1.0000    0     1.008  -19.152941   -8.597120   -1.925064
 252 H     1.0000    0     1.008  -22.295556   -8.304401   -3.001452
 253 H     1.0000    0     1.008  -20.043191   -9.885913   -4.868690
 254 Zn   30.0000    0    65.380   14.202804   -8.085382   -5.506284
 255 N     7.0000    0    14.007   12.539845   -8.342385   -1.600787
 256 C     6.0000    0    12.011   14.292755   -9.040450   -0.103746
 257 C     6.0000    0    12.011   16.943285   -8.777778   -0.718852
 258 C     6.0000    0    12.011   18.726241   -9.270052    1.150843
 259 C     6.0000    0    12.011   21.258852   -8.783636    0.658381
 260 C     6.0000    0    12.011   21.880194   -7.800601   -1.672597
 261 C     6.0000    0    12.011   19.992169   -7.397900   -3.492025
 262 C     6.0000    0    12.011   20.767712   -6.368188   -5.989109
 263 N     7.0000    0    14.007   17.573508   -7.906047   -3.028853
 264 H     1.0000    0     1.008   13.876259   -9.707712    1.803555
 265 H     1.0000    0     1.008   18.138347  -10.002131    2.959689
 266 H     1.0000    0     1.008   22.689942   -9.149109    2.063203
 267 H     1.0000    0     1.008   23.814140   -7.350846   -2.133312
 268 H     1.0000    0     1.008   21.310064   -4.391913   -5.778216
 269 H     1.0000    0     1.008   22.423679   -7.366719   -6.690197
 270 H     1.0000    0     1.008   19.255553   -6.497823   -7.361617
 271 N     7.0000    0    14.007   10.288425   -8.921019   -6.520311
 272 C     6.0000    0    12.011    9.874575  -11.248028   -6.022368
 273 C     6.0000    0    12.011   11.861433  -13.010198   -5.382318
 274 C     6.0000    0    12.011   11.242170  -15.508415   -4.842423
 275 C     6.0000    0    12.011   13.171013  -17.224098   -4.366023
 276 C     6.0000    0    12.011   15.631815  -16.390540   -4.571814
 277 C     6.0000    0    12.011   16.128624  -13.855094   -5.166133
 278 C     6.0000    0    12.011   18.794649  -13.067456   -5.579794
 279 N     7.0000    0    14.007   14.271401  -12.185899   -5.459419
 280 H     1.0000    0     1.008    7.986550  -12.061933   -6.149736
 281 H     1.0000    0     1.008    9.291216  -16.096498   -4.813132
 282 H     1.0000    0     1.008   12.756407  -19.168248   -3.914757
 283 H     1.0000    0     1.008   17.192539  -17.676687   -4.316512
 284 H     1.0000    0     1.008   19.756142  -14.482294   -6.723268
 285 H     1.0000    0     1.008   18.889891  -11.249729   -6.523524
 286 H     1.0000    0     1.008   19.809999  -12.970891   -3.791169
 287 N     7.0000    0    14.007   14.004382   -4.038723   -5.614943
 288 C     6.0000    0    12.011   14.795422   -3.183055   -7.726712
 289 C     6.0000    0    12.011   15.664318   -4.800093   -9.748530
 290 C     6.0000    0    12.011   16.763194   -3.719170  -11.877685
 291 C     6.0000    0    12.011   17.540816   -5.284430  -13.838464
 292 C     6.0000    0    12.011   17.071219   -7.836505  -13.618500
 293 C     6.0000    0    12.011   15.906581   -8.803100  -11.435678
 294 C     6.0000    0    12.011   15.333616  -11.550951  -11.353286
 295 N     7.0000    0    14.007   15.296010   -7.315697   -9.501732
 296 H     1.0000    0     1.008   14.828492   -1.158591   -8.113161
 297 H     1.0000    0     1.008   17.023598   -1.700942  -11.984832
 298 H     1.0000    0     1.008   18.448073   -4.518713  -15.495187
 299 H     1.0000    0     1.008   17.580878   -9.120763  -15.117053
 300 H     1.0000    0     1.008   13.918589  -11.976139   -9.936936
 301 H     1.0000    0     1.008   14.659362  -12.171915  -13.193879
 302 H     1.0000    0     1.008   17.044007  -12.623937  -10.952664
 303 Zn   30.0000    0    65.380    0.621342   15.992374   -5.926181
 304 N     7.0000    0    14.007   -2.727064   13.560108   -5.903126
 305 C     6.0000    0    12.011   -3.716713   13.559730   -8.099177
 306 C     6.0000    0    12.011   -2.800196   15.085684  -10.174286
 307 C     6.0000    0    12.011   -4.177996   15.130092  -12.415879
 308 C     6.0000    0    12.011   -3.271872   16.532647  -14.438264
 309 C     6.0000    0    12.011   -0.998909   17.777410  -14.143088
 310 C     6.0000    0    12.011    0.299900   17.654011  -11.836867
 311 C     6.0000    0    12.011    2.746717   19.016125  -11.576840
 312 N     7.0000    0    14.007   -0.615862   16.358981   -9.876654
 313 H     1.0000    0     1.008   -5.343957   12.366368   -8.526066
 314 H     1.0000    0     1.008   -5.929394   14.098302  -12.561766
 315 H     1.0000    0     1.008   -4.303284   16.633369  -16.193441
 316 H     1.0000    0     1.008   -0.209004   18.858900  -15.678869
 317 H     1.0000    0     1.008    4.231853   17.719017  -10.997639
 318 H     1.0000    0     1.008    3.286612   19.871982  -13.362253
 319 H     1.0000    0     1.008    2.602720   20.508253  -10.170128
 320 N     7.0000    0    14.007    1.503088   14.913719   -2.005566
 321 C     6.0000    0    12.011    0.193130   16.261849   -0.502100
 322 C     6.0000    0    12.011   -1.391594   18.336580   -1.315249
 323 C     6.0000    0    12.011   -2.568705   19.808109    0.519864
 324 C     6.0000    0    12.011   -4.157397   21.758307   -0.230925
 325 C     6.0000    0    12.011   -4.501517   22.131339   -2.785267
 326 C     6.0000    0    12.011   -3.236534   20.594613   -4.539311
 327 C     6.0000    0    12.011   -3.648494   21.114855   -7.270532
 328 N     7.0000    0    14.007   -1.704344   18.735123   -3.812145
 329 H     1.0000    0     1.008    0.212405   15.902990    1.529355
 330 H     1.0000    0     1.008   -2.237247   19.437345    2.496517
 331 H     1.0000    0     1.008   -5.091678   22.940330    1.141962
 332 H     1.0000    0     1.008   -5.728327   23.609482   -3.467270
 333 H     1.0000    0     1.008   -5.547102   20.523749   -7.809860
 334 H     1.0000    0     1.008   -3.533410   23.137240   -7.630714
 335 H     1.0000    0     1.008   -2.289025   20.134276   -8.444619
 336 N     7.0000    0    14.007    2.977075   12.817256   -7.144110
 337 C     6.0000    0    12.011    5.282918   13.504928   -7.019199
 338 C     6.0000    0    12.011    6.068667   16.075144   -6.510296
 339 C     6.0000    0    12.011    8.635482   16.647164   -6.591365
 340 C     6.0000    0    12.011    9.412726   19.102675   -6.088131
 341 C     6.0000    0    12.011    7.581959   20.875427   -5.546157
 342 C     6.0000    0    12.011    5.022136   20.182842   -5.525937
 343 C     6.0000    0    12.011    3.106521   22.168188   -4.991712
 344 N     7.0000    0    14.007    4.289111   17.820117   -5.983440
 345 H     1.0000    0     1.008    6.810384   12.156041   -7.338751
 346 H     1.0000    0     1.008    9.993250   15.197556   -7.049623
 347 H     1.0000    0     1.008   11.386545   19.609688   -6.134429
 348 H     1.0000    0     1.008    8.093319   22.808428   -5.150827
 349 H     1.0000    0     1.008    2.849140   22.360562   -2.956288
 350 H     1.0000    0     1.008    3.751484   23.989128   -5.693178
 351 H     1.0000    0     1.008    1.300887   21.709930   -5.842277

--------------------------------
INTERNAL COORDINATES (ANGSTROEM)
--------------------------------
 C      0   0   0     0.000000000000     0.00000000     0.00000000
 C      1   0   0     1.396901818311     0.00000000     0.00000000
 C      2   1   0     1.378237555721   120.47636349     0.00000000
 C      1   2   3     1.394049199275   118.79682513   357.40179565
 C      4   1   2     1.382613760238   120.28411719     1.33122500
 C      3   2   1     1.395255456897   121.16360570     1.67023571
 C      6   3   2     1.472664530706   119.38351660   182.61341604
 C      7   6   3     1.394021954633   120.80536320   137.91982936
 C      8   7   6     1.389203210477   120.67087607   185.06304250
 C      9   8   7     1.484246913421   120.99126686   176.97810285
 C     10   9   8     1.391772589183   119.23051502   270.44014044
 C     11  10   9     1.380566293229   120.98868980   181.97313321
 C     12  11  10     1.393541122465   120.32801134   357.56995249
 C     13  12  11     1.395358176240   118.87764465     2.48329482
 C     14  13  12     1.384011307757   120.40636584   359.56499435
 C      9   8   7     1.388679826310   119.51455407     0.91550805
 C     16   9   8     1.392193043367   120.74914626   358.62962562
 C     17  16   9     1.474471315421   120.10734582   175.19021953
 C     18  17  16     1.393311293287   118.81387640   312.13594649
 C     19  18  17     1.378134830124   121.01558744   182.44228220
 C     20  19  18     1.394421406892   120.60846128     1.19339329
 C     21  20  19     1.393080493008   118.77866499   357.50872467
 C     22  21  20     1.385286988317   120.27039012     1.89584109
 C     17  16   9     1.389426144133   119.05148380     0.07647050
 H      2   1   3     1.079537743666   119.33139087   183.46848047
 H      3   2   1     1.079567232737   119.05699136   183.05342632
 H      4   1   2     1.078626649958   119.44178484   182.77983270
 H      5   4   1     1.079033405414   119.22236872   181.79472560
 H      8   7   6     1.079988976796   119.89013649     3.09395136
 H     11  10   9     1.080424287028   119.62052446     1.36319487
 H     12  11  10     1.075584836264   120.12082593   179.43621427
 H     14  13  12     1.080609624240   119.77343922   178.02100886
 H     15  14  13     1.079491241280   119.59523223   179.05774966
 H     16   9   8     1.080308238421   119.58234073   179.50912389
 H     19  18  17     1.080107948309   119.63070361     1.34553737
 H     20  19  18     1.078049470108   120.11283646   179.30517563
 H     22  21  20     1.078915144949   119.77923898   184.06908978
 H     23  22  21     1.079624050306   119.38793686   181.21497381
 H     24  17  16     1.079922538889   119.22755653   180.86124930
 C     25   2   1     3.605200827971    99.73275998    61.69522259
 C     40  25   2     1.395449010176    43.97421956   184.43452467
 C     41  40  25     1.381751099149   120.70138518   270.62200445
 C     40  25   2     1.398623183706   110.72305868    74.67945531
 C     43  40  25     1.377692178972   120.62340514    45.49363093
 C     44  43  40     1.394710410802   121.28764961     0.80179809
 C     45  44  43     1.473357264889   119.69367230   183.69739848
 C     46  45  44     1.392259526812   120.35606667   134.34614395
 C     47  46  45     1.392235755898   121.03059224   184.26737323
 C     48  47  46     1.475215353770   120.43798676   176.00785944
 C     49  48  47     1.393364309863   119.38284960   312.23831486
 C     50  49  48     1.378668150789   121.03306690   181.91762281
 C     51  50  49     1.395550443374   120.65177141     1.27827396
 C     52  51  50     1.393750924663   118.67815518   358.06800194
 C     53  52  51     1.384618900637   120.32718868     1.06935712
 C     48  47  46     1.390635473444   119.08402239     0.33972065
 C     55  48  47     1.392495436258   120.85036428     0.19298269
 C     56  55  48     1.474998945762   120.06341894   173.81345097
 C     57  56  55     1.393669925054   118.76933191   312.80838210
 C     58  57  56     1.377901324479   121.04391939   182.85427890
 C     59  58  57     1.395381815132   120.63862069     1.33201358
 C     60  59  58     1.393253616539   118.69736684   357.31862019
 C     61  60  59     1.385433751574   120.31592900     1.89475283
 C     56  55  48     1.390703091965   119.19339619   358.98940616
 H     41  40  25     1.079098049299   119.04123260    92.65023854
 H     42  41  40     1.079889762892   119.50634601   181.65851219
 H     43  40  25     1.079190279793   120.00573287   228.58707009
 H     44  43  40     1.079817521621   119.13561317   182.63148277
 H     47  46  45     1.079933187748   119.57858529     3.69294149
 H     50  49  48     1.080396853013   119.60538879     0.75602216
 H     51  50  49     1.078420859405   119.94467565   179.01199070
 H     53  52  51     1.079347159166   119.59824912   183.15464945
 H     54  53  52     1.079848494003   119.40254263   181.53674583
 H     55  48  47     1.080256339949   119.61181934   179.48672131
 H     58  57  56     1.079974703407   119.61883075     1.71286350
 H     59  58  57     1.078556396300   120.09007835   178.96437407
 H     61  60  59     1.079131289510   119.72221383   183.73620084
 H     62  61  60     1.079681031601   119.37947857   181.18647685
 H     63  56  55     1.079948980276   119.41534613   180.68565861
 C     66  43  40     3.088016808568   103.57472958    53.44775272
 C     79  66  43     1.395335977462    84.53148493   180.75611509
 C     80  79  66     1.384046003571   120.40791099   299.78615852
 C     79  66  43     1.393529866921    66.84666000    56.10173515
 C     82  79  66     1.380540578904   120.32599358    71.70452498
 C     81  80  79     1.391255167106   120.72242089   358.36851601
 C     84  81  80     1.484211740285   122.14741218   180.00510182
 C     85  84  81     1.388774614543   119.36214766   267.41380619
 C     86  85  84     1.392283178811   120.74964237   182.43462180
 C     87  86  85     1.474485879892   120.09239635   175.30624300
 C     88  87  86     1.393322909451   118.83051078   312.12726569
 C     89  88  87     1.378081365522   121.02299611   182.36749183
 C     90  89  88     1.394447682776   120.60751425     1.19190634
 C     91  90  89     1.393014504591   118.77753922   357.54948726
 C     92  91  90     1.385238802517   120.27347558     1.84830683
 C     87  86  85     1.389415395049   119.04530650     0.16831934
 C     94  87  86     1.393614814072   121.04960593     1.67505240
 C     95  94  87     1.472688290169   120.13029994   173.50233265
 C     96  95  94     1.395304561736   119.35760556   322.29732330
 C     97  96  95     1.378143802366   121.16356816   182.67901481
 C     98  97  96     1.396933964080   120.48060844     1.70225063
 C     99  98  97     1.394094422914   118.79509052   357.37325240
 C    100  99  98     1.382621517263   120.28102900     1.33871949
 C     85  84  81     1.389151791562   121.01109010    91.34317598
 H     80  79  66     1.080600060152   119.78126182   118.24842801
 H     81  80  79     1.079498059285   119.59750716   179.07990955
 H     82  79  66     1.075591790597   119.52718927   249.86056459
 H     83  82  79     1.080414707416   119.38395586   178.21586897
 H     86  85  84     1.080259709514   119.57956043     3.35956128
 H     89  88  87     1.080117539900   119.62763594     1.28871380
 H     90  89  88     1.078054632196   120.11745931   179.32524169
 H     92  91  90     1.078923111255   119.77930568   184.02968222
 H     93  92  91     1.079704246542   119.38567325   181.22551274
 H     94  87  86     1.079915853203   119.21648385   180.83428083
 H     97  96  95     1.079498258452   119.76707747     1.29453256
 H     98  97  96     1.079567417997   120.09932044   178.18941678
 H    100  99  98     1.078631628500   119.43648127   182.75732396
 H    101 100  99     1.079038192095   119.21568162   181.80249141
 H    102  85  84     1.080015078598   119.40285685   358.95454344
 C     36  20  19     2.884896096916   120.39542607   237.88193226
 C    118  36  20     1.393296214019    59.44144578   200.94717020
 C    119 118  36     1.385382044780   120.31392216   285.28154864
 C    118  36  20     1.395202734372    93.96987157    79.75273993
 C    121 118  36     1.377880031062   120.64559883    54.42203420
 C    122 121 118     1.393721378181   121.04533472     1.34051615
 C    123 122 121     1.475001562711   118.77481074   182.81718751
 C    124 123 122     1.390697860788   120.54805940   127.51532793
 C    125 124 123     1.393722576412   120.90652670   186.49302979
 C    126 125 124     1.473432309270   120.59221592   174.92568082
 C    127 126 125     1.394767973535   119.70216990   318.68971520
 C    128 127 126     1.377665220582   121.28140732   183.62858112
 C    129 128 127     1.398586507871   120.62466660     0.80647462
 C    130 129 128     1.395392063185   118.31172297   357.63296513
 C    131 130 129     1.381815993539   120.69717156     1.73845928
 C    126 125 124     1.392282622171   118.92464043   359.20753557
 C    133 126 125     1.392139824156   121.02582159   359.96868851
 C    134 133 126     1.475245627006   120.41977312   176.01088832
 C    135 134 133     1.393416610350   119.38393327   312.33677925
 C    136 135 134     1.378579678510   121.03242682   181.90682015
 C    137 136 135     1.395579814987   120.65919517     1.28502711
 C    138 137 136     1.393816045969   118.66980611   358.04725702
 C    139 138 137     1.384563707454   120.33337149     1.08152334
 C    134 133 126     1.390744933480   119.09283277     0.33071249
 H    119 118  36     1.079208663790   119.72004150   107.12132780
 H    120 119 118     1.079752698538   119.37604213   181.19491829
 H    121 118  36     1.078644334338   119.22790015   236.77038192
 H    122 121 118     1.079987273073   119.32906393   182.47318400
 H    125 124 123     1.079933488693   119.41568799     5.88219796
 H    128 127 126     1.079787479090   119.54715812     1.79865707
 H    129 128 127     1.079203548919   119.30111463   177.76443009
 H    131 130 129     1.079065660653   119.03783254   183.79148089
 H    132 131 130     1.079920543373   119.50539336   181.68144735
 H    133 126 125     1.079843053411   119.57276059   179.39104998
 H    136 135 134     1.080328038144   119.60278175     0.73762774
 H    137 136 135     1.078359300048   119.93499557   179.01678673
 H    139 138 137     1.079333377599   119.59222317   183.17345369
 H    140 139 138     1.079836107935   119.40449659   181.54039023
 H    141 134 133     1.080146235470   119.61196876   179.48199706
 Zn     1   2   3     3.223546832295   129.68897423   139.69430541
 N      1   2   3     1.398083870875   119.13247246   175.04330787
 C    158   1   2     1.276305210363   118.50980401    51.11951900
 C    159 158   1     1.445169851609   122.84340968   188.50390230
 C    160 159 158     1.390926504169   119.29168118   187.17493335
 C    161 160 159     1.389939674950   118.91067129   181.46949570
 C    162 161 160     1.378049106527   117.87554210     2.94931288
 C    163 162 161     1.405610404771   120.33653038   358.22049013
 C    164 163 162     1.486014946089   118.01740063   177.16532268
 N    164 163 162     1.330773158731   121.54224003   357.99521548
 H    159 158   1     1.090743934203   121.19105592     7.71532319
 H    161 160 159     1.078430229547   120.20891428     2.20066572
 H    162 161 160     1.078520514409   120.97385582   181.72688848
 H    163 162 161     1.078633311186   120.68024446   177.92752151
 H    165 164 163     1.083195134775   111.38496658   199.19792970
 H    165 164 163     1.088045242626   109.65169069   320.27699505
 H    165 164 163     1.089244926543   110.24884322    77.61349388
 N     79  66  43     1.403303163967   120.01105351   305.28462493
 C    174  79  66     1.274691766664   118.23451084   206.78081549
 C    175 174  79     1.446480943532   122.55844298   186.70110261
 C    176 175 174     1.391746891500   118.63431619   171.51755846
 C    177 176 175     1.389305862652   119.07983503   186.28773081
 C    178 177 176     1.378514932817   117.88894144     0.70054896
 C    179 178 177     1.403825245535   120.08209454   357.95313402
 C    180 179 178     1.487131507299   117.93599544   180.87452449
 N    180 179 178     1.330545880457   121.84489770     1.00458725
 H    175 174  79     1.091721823543   121.42063357     0.68290831
 H    177 176 175     1.078503490954   120.17339520     5.71096935
 H    178 177 176     1.078625481805   120.98579554   180.18006304
 H    179 178 177     1.078574554679   120.78157065   178.64907162
 H    181 180 179     1.090185621809   109.47222063   288.58318926
 H    181 180 179     1.088363473294   110.30739970    45.79911840
 H    181 180 179     1.082836839048   111.64748045   167.91617027
 N     40  25   2     1.395018741810   109.23413826   298.25039499
 C    190  40  25     1.278188863197   119.63816103   165.45496591
 C    191 190  40     1.445566414939   123.03532334   182.20323486
 C    192 191 190     1.391719734717   119.30341430   179.28364606
 C    193 192 191     1.389141007961   119.01553184   176.49658168
 C    194 193 192     1.379146587568   118.06156458   356.91676137
 C    195 194 193     1.402959888949   120.03221491     2.04207827
 C    196 195 194     1.487283627961   118.60157649   184.92407672
 N    196 195 194     1.330399045400   121.51380678     2.29233250
 H    191 190  40     1.090034146254   121.66882158     5.42969928
 H    193 192 191     1.078406848087   120.17405993   357.02761334
 H    194 193 192     1.078730902496   120.93285425   179.09575421
 H    195 194 193     1.078677755402   120.75022023   183.24400269
 H    197 196 195     1.089624320580   110.67491421   285.99325991
 H    197 196 195     1.088965150958   109.40705493    43.08059825
 H    197 196 195     1.084844011828   111.12280501   163.98559691
 Zn   118  36  20     3.302839731201    86.65095761   314.74888995
 N     21  20  19     1.405144725642   119.02303153   177.66245767
 C    207  21  20     1.273812976853   117.53135450    59.44193600
 C    208 207  21     1.446990134728   123.68204630   185.30934487
 C    209 208 207     1.391856048591   118.44870108   185.34745710
 C    210 209 208     1.389132499080   119.14212816   181.92368641
 C    211 210 209     1.378156496919   117.82990275     0.34356084
 C    212 211 210     1.403875332784   120.16945466   359.00489120
 C    213 212 211     1.487311352744   117.73613693   181.01210832
 N    213 212 211     1.331836776786   121.81857603     0.68764742
 H    208 207  21     1.091696638265   120.83234529     5.47571308
 H    210 209 208     1.078601478768   120.13357096     2.25274273
 H    211 210 209     1.078608849398   121.03593659   180.31284344
 H    212 211 210     1.078615473651   120.75937788   179.48004655
 H    214 213 212     1.090224100816   109.65632935   287.68495653
 H    214 213 212     1.088778719483   110.11134257    44.83023837
 H    214 213 212     1.082960950358   111.80626351   166.75203211
 N     52  51  50     1.402231257675   119.80065194   178.25973741
 C    223  52  51     1.274926029227   117.88119872    51.96470238
 C    224 223  52     1.447581489934   123.55169836   183.67176125
 C    225 224 223     1.392255565620   118.60280830   184.42560840
 C    226 225 224     1.388758819954   119.10778294   180.46512839
 C    227 226 225     1.378754702621   117.93211849   359.51841314
 C    228 227 226     1.403339018199   120.13998769   359.68744036
 C    229 228 227     1.487066699916   118.34971239   181.41981491
 N    229 228 227     1.331361660106   121.68273781     1.04507318
 H    224 223  52     1.091538487640   120.93906059     5.01915132
 H    226 225 224     1.078560791054   120.14614751     0.78045999
 H    227 226 225     1.078660637087   121.00833055   179.97471142
 H    228 227 226     1.078545149727   120.61952922   180.25958319
 H    230 229 228     1.090519843928   109.80777820   274.00110340
 H    230 229 228     1.087525567516   110.31327669    31.78394385
 H    230 229 228     1.083727608765   111.34848216   153.53200696
 N    118  36  20     1.403682745495   116.02161470   314.71499650
 C    239 118  36     1.274717756996   117.56684484   166.95962839
 C    240 239 118     1.446755338680   123.66223647   186.60102396
 C    241 240 239     1.392570436280   118.71430505   186.42744451
 C    242 241 240     1.387872115867   119.00875395   181.84980083
 C    243 242 241     1.380266644529   117.97020474     1.50584489
 C    244 243 242     1.401977927786   120.22744533   358.56813380
 C    245 244 243     1.488324400122   118.97087292   179.98582731
 N    245 244 243     1.334280682615   121.50690855   359.59147229
 H    240 239 118     1.091536627878   120.85133453     6.32575809
 H    242 241 240     1.078454769566   120.15925994     2.33916564
 H    243 242 241     1.078696254745   121.03582142   180.93816428
 H    244 243 242     1.078310906001   120.37259153   178.80723135
 H    246 245 244     1.087445138846   110.43120814   235.78542893
 H    246 245 244     1.085988241189   110.51283426   355.93000496
 H    246 245 244     1.087879777365   110.72394137   115.69348397
 Zn    99  98  97     3.223277504342   129.64853487   139.70822571
 N     13  12  11     1.403273676087   118.66401958   184.44951847
 C    256  13  12     1.274550493311   118.23330359   128.20962190
 C    257 256  13     1.446567665199   122.54467395   186.72120172
 C    258 257 256     1.391748849470   118.64419859   171.46788614
 C    259 258 257     1.389353504332   119.07270881   186.32012504
 C    260 259 258     1.378491831677   117.89398592     0.72535533
 C    261 260 259     1.403779277522   120.08260839   357.93875441
 C    262 261 260     1.487091836438   117.94675574   180.85970064
 N    262 261 260     1.330610848445   121.84227155     0.98835032
 H    257 256  13     1.091761081922   121.42760936     0.69970492
 H    259 258 257     1.078468270280   120.17514714     5.74525185
 H    260 259 258     1.078679938629   120.97998956   180.19704304
 H    261 260 259     1.078624123594   120.78588392   178.62929057
 H    263 262 261     1.090193193888   109.46249362   288.77706106
 H    263 262 261     1.088461873471   110.31445107    45.98712296
 H    263 262 261     1.082837794870   111.64467685   168.11931057
 N    130 129 128     1.394931270708   121.54781621   175.82646516
 C    272 130 129     1.278178082272   119.62906022    34.68549938
 C    273 272 130     1.445584968101   123.03452653   182.15783620
 C    274 273 272     1.391652176372   119.31541421   179.38782827
 C    275 274 273     1.389123936155   119.01905986   176.47132472
 C    276 275 274     1.379185723534   118.06049032   356.92149212
 C    277 276 275     1.402920364810   120.03342685     2.03546644
 C    278 277 276     1.487278080925   118.60493270   184.92781200
 N    278 277 276     1.330489297214   121.50991757     2.29355106
 H    273 272 130     1.090066997941   121.66460092     5.39235652
 H    275 274 273     1.078394848838   120.16664465   357.00388322
 H    276 275 274     1.078698864373   120.93536055   179.10314437
 H    277 276 275     1.078693274291   120.74560021   183.24477494
 H    279 278 277     1.088841191359   109.41156606    43.10232075
 H    279 278 277     1.084984852429   111.11618860   164.00343120
 H    279 278 277     1.089570901777   110.67461319   286.00731514
 N     99  98  97     1.398055327947   119.12273399   175.04454585
 C    288  99  98     1.276346367566   118.49069788    51.15642352
 C    289 288  99     1.445103643342   122.85431774   188.50057279
 C    290 289 288     1.390963385571   119.28917149   187.25388437
 C    291 290 289     1.389973704787   118.90623497   181.46157631
 C    292 291 290     1.378097043027   117.87483798     2.98123645
 C    293 292 291     1.405600921314   120.33726169   358.21344433
 C    294 293 292     1.486014135195   118.01215748   177.09629257
 N    294 293 292     1.330889770041   121.54369827   357.96141673
 H    289 288  99     1.090784208723   121.18711248     7.71015110
 H    291 290 289     1.078344903081   120.21819857     2.20641883
 H    292 291 290     1.078557342008   120.97637909   181.74837314
 H    293 292 291     1.078630265661   120.68090369   177.90893449
 H    295 294 293     1.083086649350   111.38563268   199.23950436
 H    295 294 293     1.088099352081   109.64253137   320.30855388
 H    295 294 293     1.089287312879   110.25741169    77.63837676
 Zn    60  59  58     3.301951141371   125.15087440   143.10448590
 N     60  59  58     1.403619065131   118.96518599   177.18362697
 C    305  60  59     1.274652164318   117.56903528    55.92689900
 C    306 305  60     1.446756669243   123.65336872   186.55303596
 C    307 306 305     1.392555025843   118.71388808   186.41877192
 C    308 307 306     1.387843337701   119.01162849   181.81648040
 C    309 308 307     1.380221710451   117.97212090     1.49571009
 C    310 309 308     1.402148900795   120.22792894   358.57746204
 C    311 310 309     1.488285402737   118.97097309   179.99244459
 N    311 310 309     1.334340488781   121.50143127   359.60223369
 H    306 305  60     1.091474356089   120.85865707     6.30000816
 H    308 307 306     1.078440577872   120.15782054     2.30394079
 H    309 308 307     1.078613911462   121.03863943   180.93998356
 H    310 309 308     1.078300783641   120.38543150   178.82029861
 H    312 311 310     1.087532077688   110.43084005   235.88258033
 H    312 311 310     1.085997209941   110.51283741   356.01650596
 H    312 311 310     1.087844639643   110.72365978   115.79386659
 N     91  90  89     1.405268294668   119.01757457   177.70884546
 C    321  91  90     1.273752393521   117.51902856    59.61929384
 C    322 321  91     1.446994284716   123.68401042   185.30667117
 C    323 322 321     1.391909950392   118.44808063   185.33767456
 C    324 323 322     1.389117626409   119.13832895   181.95377121
 C    325 324 323     1.378121932196   117.83385558     0.35761512
 C    326 325 324     1.403903785877   120.16595979   358.98460932
 C    327 326 325     1.487348708273   117.73379132   181.01753889
 N    327 326 325     1.331812178950   121.81798126     0.69656775
 H    322 321  91     1.091691829227   120.83387303     5.45471974
 H    324 323 322     1.078598905989   120.13567723     2.27923481
 H    325 324 323     1.078649090298   121.03577506   180.30977700
 H    326 325 324     1.078678028885   120.76755830   179.47129694
 H    328 327 326     1.090283949254   109.65327530   287.93239874
 H    328 327 326     1.088744786440   110.11209726    45.07112532
 H    328 327 326     1.082962261577   111.80400570   167.00202158
 N    138 137 136     1.402073913886   119.80137244   178.21167902
 C    337 138 137     1.275021748834   117.89492233    51.87864705
 C    338 337 138     1.447509633819   123.55369744   183.72468577
 C    339 338 337     1.392281074352   118.60658850   184.41906298
 C    340 339 338     1.388712979705   119.10860624   180.46686228
 C    341 340 339     1.378716537219   117.93239869   359.51303207
 C    342 341 340     1.403345253314   120.14316978   359.69213960
 C    343 342 341     1.487033066209   118.35617175   181.42306208
 N    343 342 341     1.331288439821   121.67756665     1.04292950
 H    338 337 138     1.091537511953   120.93097388     5.06045460
 H    340 339 338     1.078652358269   120.14314605     0.78822883
 H    341 340 339     1.078686882279   121.00836476   179.98359920
 H    342 341 340     1.078570076537   120.62048609   180.26445114
 H    344 343 342     1.090439402259   109.80912851   273.96432253
 H    344 343 342     1.087566131323   110.31373296    31.74733304
 H    344 343 342     1.083686536781   111.34600403   153.49250253

---------------------------
INTERNAL COORDINATES (A.U.)
---------------------------
 C      0   0   0     0.000000000000     0.00000000     0.00000000
 C      1   0   0     2.639761872584     0.00000000     0.00000000
 C      2   1   0     2.604491527798   120.47636349     0.00000000
 C      1   2   3     2.634371203842   118.79682513   357.40179565
 C      4   1   2     2.612761355841   120.28411719     1.33122500
 C      3   2   1     2.636650700394   121.16360570     1.67023571
 C      6   3   2     2.782932650174   119.38351660   182.61341604
 C      7   6   3     2.634319718931   120.80536320   137.91982936
 C      8   7   6     2.625213612166   120.67087607   185.06304250
 C      9   8   7     2.804820181484   120.99126686   176.97810285
 C     10   9   8     2.630069034254   119.23051502   270.44014044
 C     11  10   9     2.608892203926   120.98868980   181.97313321
 C     12  11  10     2.633411077815   120.32801134   357.56995249
 C     13  12  11     2.636844811822   118.87764465     2.48329482
 C     14  13  12     2.615402337911   120.40636584   359.56499435
 C      9   8   7     2.624224559427   119.51455407     0.91550805
 C     16   9   8     2.630863577514   120.74914626   358.62962562
 C     17  16   9     2.786346978469   120.10734582   175.19021953
 C     18  17  16     2.632976763611   118.81387640   312.13594649
 C     19  18  17     2.604297404552   121.01558744   182.44228220
 C     20  19  18     2.635074574304   120.60846128     1.19339329
 C     21  20  19     2.632540614294   118.77866499   357.50872467
 C     22  21  20     2.617813024803   120.27039012     1.89584109
 C     17  16   9     2.625634895721   119.05148380     0.07647050
 H      2   1   3     2.040030686760   119.33139087   183.46848047
 H      3   2   1     2.040086413029   119.05699136   183.05342632
 H      4   1   2     2.038308969170   119.44178484   182.77983270
 H      5   4   1     2.039077625585   119.22236872   181.79472560
 H      8   7   6     2.040883393798   119.89013649     3.09395136
 H     11  10   9     2.041706010920   119.62052446     1.36319487
 H     12  11  10     2.032560774337   120.12082593   179.43621427
 H     14  13  12     2.042056247493   119.77343922   178.02100886
 H     15  14  13     2.039942809986   119.59523223   179.05774966
 H     16   9   8     2.041486710834   119.58234073   179.50912389
 H     19  18  17     2.041108217375   119.63070361     1.34553737
 H     20  19  18     2.037218257323   120.11283646   179.30517563
 H     22  21  20     2.038854145693   119.77923898   184.06908978
 H     23  22  21     2.040193782674   119.38793686   181.21497381
 H     24  17  16     2.040757844349   119.22755653   180.86124930
 C     25   2   1     6.812842222651    99.73275998    61.69522259
 C     40  25   2     2.637016463083    43.97421956   184.43452467
 C     41  40  25     2.611131162637   120.70138518   270.62200445
 C     40  25   2     2.643014781757   110.72305868    74.67945531
 C     43  40  25     2.603460915102   120.62340514    45.49363093
 C     44  43  40     2.635620712545   121.28764961     0.80179809
 C     45  44  43     2.784241728063   119.69367230   183.69739848
 C     46  45  44     2.630989213018   120.35606667   134.34614395
 C     47  46  45     2.630944292499   121.03059224   184.26737323
 C     48  47  46     2.787753007182   120.43798676   176.00785944
 C     49  48  47     2.633076950421   119.38284960   312.23831486
 C     50  49  48     2.605305234551   121.03306690   181.91762281
 C     51  50  49     2.637208144048   120.65177141     1.27827396
 C     52  51  50     2.633807546513   118.67815518   358.06800194
 C     53  52  51     2.616550522054   120.32718868     1.06935712
 C     48  47  46     2.627920196925   119.08402239     0.33972065
 C     55  48  47     2.631435017263   120.85036428     0.19298269
 C     56  55  48     2.787344055313   120.06341894   173.81345097
 C     57  56  55     2.633654479435   118.76933191   312.80838210
 C     58  57  56     2.603856142832   121.04391939   182.85427890
 C     59  58  57     2.636889482853   120.63862069     1.33201358
 C     60  59  58     2.632867770355   118.69736684   357.31862019
 C     61  60  59     2.618090367166   120.31592900     1.89475283
 C     56  55  48     2.628047977411   119.19339619   358.98940616
 H     41  40  25     2.039199784823   119.04123260    92.65023854
 H     42  41  40     2.040695906692   119.50634601   181.65851219
 H     43  40  25     2.039374075199   120.00573287   228.58707009
 H     44  43  40     2.040559390474   119.13561317   182.63148277
 H     47  46  45     2.040777967777   119.57858529     3.69294149
 H     50  49  48     2.041654168145   119.60538879     0.75602216
 H     51  50  49     2.037920081384   119.94467565   179.01199070
 H     53  52  51     2.039670534250   119.59824912   183.15464945
 H     54  53  52     2.040617919792   119.40254263   181.53674583
 H     55  48  47     2.041388636936   119.61181934   179.48672131
 H     58  57  56     2.040856421003   119.61883075     1.71286350
 H     59  58  57     2.038176208996   120.09007835   178.96437407
[...]
300 H      0.8283     1.0000     0.1717     0.9580     0.9580     0.0000
301 H      0.8106     1.0000     0.1894     0.9534     0.9534     0.0000
302 H      0.7941     1.0000     0.2059     0.9430     0.9430     0.0000
303 Zn    29.5249    30.0000     0.4751     2.5265     2.5265    -0.0000
304 N      6.8604     7.0000     0.1396     3.0955     3.0955    -0.0000
305 C      6.2178     6.0000    -0.2178     3.9223     3.9223    -0.0000
306 C      5.8479     6.0000     0.1521     3.6539     3.6539    -0.0000
307 C      6.1023     6.0000    -0.1023     3.7794     3.7794    -0.0000
308 C      6.1341     6.0000    -0.1341     3.8689     3.8689    -0.0000
309 C      6.0592     6.0000    -0.0592     3.7741     3.7741     0.0000
310 C      5.8764     6.0000     0.1236     3.7079     3.7079     0.0000
311 C      6.5659     6.0000    -0.5659     3.8187     3.8187     0.0000
312 N      7.0073     7.0000    -0.0073     3.0476     3.0476     0.0000
313 H      0.8482     1.0000     0.1518     0.9700     0.9700    -0.0000
314 H      0.8286     1.0000     0.1714     0.9615     0.9615    -0.0000
315 H      0.8163     1.0000     0.1837     0.9566     0.9566     0.0000
316 H      0.8140     1.0000     0.1860     0.9561     0.9561     0.0000
317 H      0.8213     1.0000     0.1787     0.9474     0.9474     0.0000
318 H      0.8185     1.0000     0.1815     0.9582     0.9582     0.0000
319 H      0.8140     1.0000     0.1860     0.9503     0.9503    -0.0000
320 N      6.8507     7.0000     0.1493     3.0776     3.0776     0.0000
321 C      6.2135     6.0000    -0.2135     3.8979     3.8979    -0.0000
322 C      5.8789     6.0000     0.1211     3.6843     3.6843    -0.0000
323 C      6.1035     6.0000    -0.1035     3.7637     3.7637    -0.0000
324 C      6.1474     6.0000    -0.1474     3.8666     3.8666    -0.0000
325 C      6.0442     6.0000    -0.0442     3.7430     3.7430     0.0000
326 C      5.8896     6.0000     0.1104     3.6327     3.6327     0.0000
327 C      6.5543     6.0000    -0.5543     3.7130     3.7130     0.0000
328 N      7.0033     7.0000    -0.0033     3.1357     3.1357     0.0000
329 H      0.8487     1.0000     0.1513     0.9697     0.9697    -0.0000
330 H      0.8276     1.0000     0.1724     0.9611     0.9611    -0.0000
331 H      0.8161     1.0000     0.1839     0.9567     0.9567     0.0000
332 H      0.8137     1.0000     0.1863     0.9557     0.9557     0.0000
333 H      0.7906     1.0000     0.2094     0.9428     0.9428     0.0000
334 H      0.7961     1.0000     0.2039     0.9472     0.9472     0.0000
335 H      0.8312     1.0000     0.1688     0.9592     0.9592     0.0000
336 N      6.8573     7.0000     0.1427     3.0751     3.0751     0.0000
337 C      6.2159     6.0000    -0.2159     3.8539     3.8539     0.0000
338 C      5.9162     6.0000     0.0838     3.7287     3.7287     0.0000
339 C      6.1119     6.0000    -0.1119     3.7725     3.7725    -0.0000
340 C      6.1429     6.0000    -0.1429     3.8756     3.8756     0.0000
341 C      6.0456     6.0000    -0.0456     3.7548     3.7548     0.0000
342 C      5.9182     6.0000     0.0818     3.6999     3.6999     0.0000
343 C      6.5231     6.0000    -0.5231     3.7181     3.7181     0.0000
344 N      6.9530     7.0000     0.0470     3.1160     3.1160     0.0000
345 H      0.8486     1.0000     0.1514     0.9694     0.9694     0.0000
346 H      0.8281     1.0000     0.1719     0.9612     0.9612    -0.0000
347 H      0.8169     1.0000     0.1831     0.9569     0.9569     0.0000
348 H      0.8135     1.0000     0.1865     0.9557     0.9557    -0.0000
349 H      0.7897     1.0000     0.2103     0.9418     0.9418     0.0000
350 H      0.8050     1.0000     0.1950     0.9517     0.9517     0.0000
351 H      0.8472     1.0000     0.1528     0.9653     0.9653     0.0000

  Mayer bond orders larger than 0.100000
B(  0-C ,  1-C ) :   1.2987 B(  0-C ,  3-C ) :   1.3617 B(  0-C ,157-N ) :   0.8364 
B(  1-C ,  2-C ) :   1.4663 B(  1-C , 24-H ) :   0.9154 B(  2-C ,  5-C ) :   1.4028 
B(  2-C , 25-H ) :   0.9166 B(  3-C ,  4-C ) :   1.3807 B(  3-C , 26-H ) :   0.9568 
B(  4-C ,  5-C ) :   1.3002 B(  4-C , 27-H ) :   0.9505 B(  5-C ,  6-C ) :   0.7729 
B(  6-C ,  7-C ) :   1.3750 B(  6-C , 23-C ) :   1.3790 B(  7-C ,  8-C ) :   1.4263 
B(  7-C , 28-H ) :   0.9232 B(  8-C ,  9-C ) :   0.6761 B(  8-C , 15-C ) :   1.4244 
B(  9-C , 10-C ) :   1.4111 B(  9-C , 14-C ) :   1.3705 B( 10-C , 11-C ) :   1.3609 
B( 10-C , 29-H ) :   0.9353 B( 11-C , 12-C ) :   1.4705 B( 11-C , 30-H ) :   0.8974 
B( 12-C , 13-C ) :   1.2957 B( 12-C ,255-N ) :   0.8127 B( 13-C , 14-C ) :   1.3876 
B( 13-C , 31-H ) :   0.9516 B( 14-C , 32-H ) :   0.9626 B( 15-C , 16-C ) :   1.3640 
B( 15-C , 33-H ) :   0.9289 B( 16-C , 17-C ) :   0.7356 B( 16-C , 23-C ) :   1.4052 
B( 17-C , 18-C ) :   1.3927 B( 17-C , 22-C ) :   1.2955 B( 18-C , 19-C ) :   1.4492 
B( 18-C , 34-H ) :   0.9178 B( 19-C , 20-C ) :   1.3817 B( 19-C , 35-H ) :   0.9035 
B( 20-C , 21-C ) :   1.3557 B( 20-C ,206-N ) :   0.8328 B( 21-C , 22-C ) :   1.3298 
B( 21-C , 36-H ) :   0.9499 B( 22-C , 37-H ) :   0.9632 B( 23-C , 38-H ) :   0.9088 
B( 39-C , 40-C ) :   1.3403 B( 39-C , 42-C ) :   1.2791 B( 39-C ,189-N ) :   0.8465 
B( 40-C , 41-C ) :   1.3451 B( 40-C , 63-H ) :   0.9591 B( 41-C , 44-C ) :   1.2756 
B( 41-C , 64-H ) :   0.9597 B( 42-C , 43-C ) :   1.4577 B( 42-C , 65-H ) :   0.9233 
B( 43-C , 44-C ) :   1.4133 B( 43-C , 66-H ) :   0.9172 B( 44-C , 45-C ) :   0.7457 
B( 45-C , 46-C ) :   1.3935 B( 45-C , 62-C ) :   1.3770 B( 46-C , 47-C ) :   1.3824 
B( 46-C , 67-H ) :   0.9116 B( 47-C , 48-C ) :   0.7301 B( 47-C , 54-C ) :   1.3902 
B( 48-C , 49-C ) :   1.3948 B( 48-C , 53-C ) :   1.2992 B( 49-C , 50-C ) :   1.4537 
B( 49-C , 68-H ) :   0.9244 B( 50-C , 51-C ) :   1.3569 B( 50-C , 69-H ) :   0.8970 
B( 51-C , 52-C ) :   1.3065 B( 51-C ,222-N ) :   0.8222 B( 52-C , 53-C ) :   1.3466 
B( 52-C , 70-H ) :   0.9662 B( 53-C , 71-H ) :   0.9669 B( 54-C , 55-C ) :   1.3736 
B( 54-C , 72-H ) :   0.9182 B( 55-C , 56-C ) :   0.7304 B( 55-C , 62-C ) :   1.3938 
B( 56-C , 57-C ) :   1.4047 B( 56-C , 61-C ) :   1.2909 B( 57-C , 58-C ) :   1.4573 
B( 57-C , 73-H ) :   0.9199 B( 58-C , 59-C ) :   1.3535 B( 58-C , 74-H ) :   0.9070 
B( 59-C , 60-C ) :   1.3347 B( 59-C ,304-N ) :   0.8435 B( 60-C , 61-C ) :   1.3368 
B( 60-C , 75-H ) :   0.9591 B( 61-C , 76-H ) :   0.9637 B( 62-C , 77-H ) :   0.9152 
B( 78-C , 79-C ) :   1.2950 B( 78-C , 81-C ) :   1.4718 B( 78-C ,173-N ) :   0.8145 
B( 79-C , 80-C ) :   1.3879 B( 79-C ,102-H ) :   0.9512 B( 80-C , 83-C ) :   1.3712 
B( 80-C ,103-H ) :   0.9625 B( 81-C , 82-C ) :   1.3600 B( 81-C ,104-H ) :   0.8971 
B( 82-C , 83-C ) :   1.4100 B( 82-C ,105-H ) :   0.9362 B( 83-C , 84-C ) :   0.6780 
B( 84-C , 85-C ) :   1.4241 B( 84-C ,101-C ) :   1.4273 B( 85-C , 86-C ) :   1.3649 
B( 85-C ,106-H ) :   0.9288 B( 86-C , 87-C ) :   0.7355 B( 86-C , 93-C ) :   1.4042 
B( 87-C , 88-C ) :   1.3917 B( 87-C , 92-C ) :   1.2967 B( 88-C , 89-C ) :   1.4489 
B( 88-C ,107-H ) :   0.9174 B( 89-C , 90-C ) :   1.3840 B( 89-C ,108-H ) :   0.9026 
B( 90-C , 91-C ) :   1.3563 B( 90-C ,320-N ) :   0.8319 B( 91-C , 92-C ) :   1.3302 
B( 91-C ,109-H ) :   0.9497 B( 92-C ,110-H ) :   0.9631 B( 93-C , 94-C ) :   1.3783 
B( 93-C ,111-H ) :   0.9088 B( 94-C , 95-C ) :   0.7731 B( 94-C ,101-C ) :   1.3750 
B( 95-C , 96-C ) :   1.4026 B( 95-C ,100-C ) :   1.2997 B( 96-C , 97-C ) :   1.4670 
B( 96-C ,112-H ) :   0.9164 B( 97-C , 98-C ) :   1.2992 B( 97-C ,113-H ) :   0.9157 
B( 98-C , 99-C ) :   1.3609 B( 98-C ,287-N ) :   0.8361 B( 99-C ,100-C ) :   1.3806 
B( 99-C ,114-H ) :   0.9567 B(100-C ,115-H ) :   0.9510 B(101-C ,116-H ) :   0.9232 
B(117-C ,118-C ) :   1.3341 B(117-C ,120-C ) :   1.3532 B(117-C ,238-N ) :   0.8435 
B(118-C ,119-C ) :   1.3371 B(118-C ,141-H ) :   0.9593 B(119-C ,122-C ) :   1.2905 
B(119-C ,142-H ) :   0.9638 B(120-C ,121-C ) :   1.4570 B(120-C ,143-H ) :   0.9072 
B(121-C ,122-C ) :   1.4051 B(121-C ,144-H ) :   0.9200 B(122-C ,123-C ) :   0.7304 
B(123-C ,124-C ) :   1.3939 B(123-C ,140-C ) :   1.3735 B(124-C ,125-C ) :   1.3770 
B(124-C ,145-H ) :   0.9152 B(125-C ,126-C ) :   0.7451 B(125-C ,132-C ) :   1.3935 
B(126-C ,127-C ) :   1.4129 B(126-C ,131-C ) :   1.2762 B(127-C ,128-C ) :   1.4586 
B(127-C ,146-H ) :   0.9168 B(128-C ,129-C ) :   1.2798 B(128-C ,147-H ) :   0.9228 
B(129-C ,130-C ) :   1.3399 B(129-C ,271-N ) :   0.8455 B(130-C ,131-C ) :   1.3455 
B(130-C ,148-H ) :   0.9594 B(131-C ,149-H ) :   0.9595 B(132-C ,133-C ) :   1.3825 
B(132-C ,150-H ) :   0.9117 B(133-C ,134-C ) :   0.7306 B(133-C ,140-C ) :   1.3900 
B(134-C ,135-C ) :   1.3939 B(134-C ,139-C ) :   1.2989 B(135-C ,136-C ) :   1.4545 
B(135-C ,151-H ) :   0.9248 B(136-C ,137-C ) :   1.3569 B(136-C ,152-H ) :   0.8964 
B(137-C ,138-C ) :   1.3059 B(137-C ,336-N ) :   0.8228 B(138-C ,139-C ) :   1.3463 
B(138-C ,153-H ) :   0.9665 B(139-C ,154-H ) :   0.9669 B(140-C ,155-H ) :   0.9184 
B(156-Zn,157-N ) :   0.4271 B(156-Zn,165-N ) :   0.2997 B(156-Zn,173-N ) :   0.3966 
B(156-Zn,181-N ) :   0.3557 B(156-Zn,189-N ) :   0.4255 B(156-Zn,197-N ) :   0.3996 
B(157-N ,158-C ) :   1.8303 B(157-N ,159-C ) :  -0.1268 B(158-C ,159-C ) :   0.9394 
B(158-C ,166-H ) :   0.9272 B(159-C ,160-C ) :   1.4322 B(159-C ,165-N ) :   1.2074 
B(160-C ,161-C ) :   1.3072 B(160-C ,167-H ) :   0.9134 B(161-C ,162-C ) :   1.4289 
B(161-C ,168-H ) :   0.9657 B(162-C ,163-C ) :   1.2997 B(162-C ,169-H ) :   0.9131 
B(163-C ,164-C ) :   0.8402 B(163-C ,165-N ) :   1.3833 B(164-C ,170-H ) :   0.9707 
B(164-C ,171-H ) :   0.9485 B(164-C ,172-H ) :   0.9406 B(173-N ,174-C ) :   1.8473 
B(173-N ,175-C ) :  -0.1231 B(174-C ,175-C ) :   0.9797 B(174-C ,182-H ) :   0.9054 
B(175-C ,176-C ) :   1.4000 B(175-C ,181-N ) :   1.2686 B(176-C ,177-C ) :   1.3131 
B(176-C ,183-H ) :   0.9152 B(177-C ,178-C ) :   1.4187 B(177-C ,184-H ) :   0.9667 
B(178-C ,179-C ) :   1.2999 B(178-C ,185-H ) :   0.9194 B(179-C ,180-C ) :   0.8413 
B(179-C ,181-N ) :   1.3418 B(180-C ,186-H ) :   0.9429 B(180-C ,187-H ) :   0.9436 
B(180-C ,188-H ) :   0.9722 B(189-N ,190-C ) :   1.8072 B(189-N ,191-C ) :  -0.1245 
B(190-C ,191-C ) :   0.8728 B(190-C ,198-H ) :   0.9440 B(191-C ,192-C ) :   1.3934 
B(191-C ,197-N ) :   1.2807 B(192-C ,193-C ) :   1.3248 B(192-C ,199-H ) :   0.9070 
B(193-C ,194-C ) :   1.4116 B(193-C ,200-H ) :   0.9664 B(194-C ,195-C ) :   1.3172 
B(194-C ,201-H ) :   0.9157 B(195-C ,196-C ) :   0.8075 B(195-C ,197-N ) :   1.3493 
B(196-C ,202-H ) :   0.9415 B(196-C ,203-H ) :   0.9510 B(196-C ,204-H ) :   0.9688 
B(205-Zn,206-N ) :   0.3899 B(205-Zn,214-N ) :   0.3711 B(205-Zn,222-N ) :   0.3987 
B(205-Zn,230-N ) :   0.3989 B(205-Zn,238-N ) :   0.3950 B(205-Zn,246-N ) :   0.3620 
B(206-N ,207-C ) :   1.8784 B(206-N ,208-C ) :  -0.1301 B(207-C ,208-C ) :   0.9201 
B(207-C ,215-H ) :   0.9260 B(208-C ,209-C ) :   1.4112 B(208-C ,214-N ) :   1.3049 
B(209-C ,210-C ) :   1.3130 B(209-C ,216-H ) :   0.9144 B(210-C ,211-C ) :   1.4227 
B(210-C ,217-H ) :   0.9654 B(211-C ,212-C ) :   1.3078 B(211-C ,218-H ) :   0.9140 
B(212-C ,213-C ) :   0.8366 B(212-C ,214-N ) :   1.3457 B(213-C ,219-H ) :   0.9439 
B(213-C ,220-H ) :   0.9430 B(213-C ,221-H ) :   0.9749 B(222-N ,223-C ) :   1.8723 
B(222-N ,224-C ) :  -0.1308 B(223-C ,224-C ) :   0.9112 B(223-C ,231-H ) :   0.9366 
B(224-C ,225-C ) :   1.4048 B(224-C ,230-N ) :   1.3279 B(225-C ,226-C ) :   1.3194 
B(225-C ,232-H ) :   0.9140 B(226-C ,227-C ) :   1.4242 B(226-C ,233-H ) :   0.9655 
B(227-C ,228-C ) :   1.3168 B(227-C ,234-H ) :   0.9101 B(228-C ,229-C ) :   0.8734 
B(228-C ,230-N ) :   1.3284 B(229-C ,235-H ) :   0.9497 B(229-C ,236-H ) :   0.9482 
B(229-C ,237-H ) :   0.9531 B(238-N ,239-C ) :   1.8723 B(238-N ,240-C ) :  -0.1240 
B(239-C ,240-C ) :   0.9265 B(239-C ,247-H ) :   0.9260 B(240-C ,241-C ) :   1.4110 
B(240-C ,246-N ) :   1.2909 B(241-C ,242-C ) :   1.3269 B(241-C ,248-H ) :   0.9132 
B(242-C ,243-C ) :   1.4143 B(242-C ,249-H ) :   0.9657 B(243-C ,244-C ) :   1.3396 
B(243-C ,250-H ) :   0.9060 B(244-C ,245-C ) :   0.9400 B(244-C ,246-N ) :   1.2586 
B(245-C ,251-H ) :   0.9476 B(245-C ,252-H ) :   0.9461 B(245-C ,253-H ) :   0.9430 
B(254-Zn,255-N ) :   0.3956 B(254-Zn,263-N ) :   0.3541 B(254-Zn,271-N ) :   0.4265 
B(254-Zn,279-N ) :   0.4003 B(254-Zn,287-N ) :   0.4269 B(254-Zn,295-N ) :   0.2996 
B(255-N ,256-C ) :   1.8483 B(255-N ,257-C ) :  -0.1233 B(256-C ,257-C ) :   0.9796 
B(256-C ,264-H ) :   0.9054 B(257-C ,258-C ) :   1.3998 B(257-C ,263-N ) :   1.2689 
B(258-C ,259-C ) :   1.3130 B(258-C ,265-H ) :   0.9152 B(259-C ,260-C ) :   1.4188 
B(259-C ,266-H ) :   0.9666 B(260-C ,261-C ) :   1.2996 B(260-C ,267-H ) :   0.9193 
B(261-C ,262-C ) :   0.8411 B(261-C ,263-N ) :   1.3426 B(262-C ,268-H ) :   0.9428 
B(262-C ,269-H ) :   0.9438 B(262-C ,270-H ) :   0.9723 B(271-N ,272-C ) :   1.8065 
B(271-N ,273-C ) :  -0.1241 B(272-C ,273-C ) :   0.8731 B(272-C ,280-H ) :   0.9443 
B(273-C ,274-C ) :   1.3940 B(273-C ,279-N ) :   1.2810 B(274-C ,275-C ) :   1.3249 
B(274-C ,281-H ) :   0.9069 B(275-C ,276-C ) :   1.4115 B(275-C ,282-H ) :   0.9665 
B(276-C ,277-C ) :   1.3174 B(276-C ,283-H ) :   0.9158 B(277-C ,278-C ) :   0.8070 
B(277-C ,279-N ) :   1.3482 B(278-C ,284-H ) :   0.9510 B(278-C ,285-H ) :   0.9690 
B(278-C ,286-H ) :   0.9416 B(287-N ,288-C ) :   1.8317 B(287-N ,289-C ) :  -0.1276 
B(288-C ,289-C ) :   0.9394 B(288-C ,296-H ) :   0.9270 B(289-C ,290-C ) :   1.4324 
B(289-C ,295-N ) :   1.2075 B(290-C ,291-C ) :   1.3074 B(290-C ,297-H ) :   0.9133 
B(291-C ,292-C ) :   1.4290 B(291-C ,298-H ) :   0.9657 B(292-C ,293-C ) :   1.2998 
B(292-C ,299-H ) :   0.9131 B(293-C ,294-C ) :   0.8398 B(293-C ,295-N ) :   1.3828 
B(294-C ,300-H ) :   0.9709 B(294-C ,301-H ) :   0.9485 B(294-C ,302-H ) :   0.9407 
B(303-Zn,304-N ) :   0.3950 B(303-Zn,312-N ) :   0.3617 B(303-Zn,320-N ) :   0.3896 
B(303-Zn,328-N ) :   0.3712 B(303-Zn,336-N ) :   0.3989 B(303-Zn,344-N ) :   0.3994 
B(304-N ,305-C ) :   1.8720 B(304-N ,306-C ) :  -0.1237 B(305-C ,306-C ) :   0.9262 
B(305-C ,313-H ) :   0.9261 B(306-C ,307-C ) :   1.4115 B(306-C ,312-N ) :   1.2908 
B(307-C ,308-C ) :   1.3268 B(307-C ,314-H ) :   0.9130 B(308-C ,309-C ) :   1.4144 
B(308-C ,315-H ) :   0.9657 B(309-C ,310-C ) :   1.3397 B(309-C ,316-H ) :   0.9061 
B(310-C ,311-C ) :   0.9405 B(310-C ,312-N ) :   1.2586 B(311-C ,317-H ) :   0.9474 
B(311-C ,318-H ) :   0.9462 B(311-C ,319-H ) :   0.9429 B(320-N ,321-C ) :   1.8784 
B(320-N ,322-C ) :  -0.1301 B(321-C ,322-C ) :   0.9205 B(321-C ,329-H ) :   0.9260 
B(322-C ,323-C ) :   1.4112 B(322-C ,328-N ) :   1.3046 B(323-C ,324-C ) :   1.3130 
B(323-C ,330-H ) :   0.9145 B(324-C ,325-C ) :   1.4225 B(324-C ,331-H ) :   0.9654 
B(325-C ,326-C ) :   1.3076 B(325-C ,332-H ) :   0.9141 B(326-C ,327-C ) :   0.8360 
B(326-C ,328-N ) :   1.3456 B(327-C ,333-H ) :   0.9438 B(327-C ,334-H ) :   0.9430 
B(327-C ,335-H ) :   0.9750 B(336-N ,337-C ) :   1.8719 B(336-N ,338-C ) :  -0.1309 
B(337-C ,338-C ) :   0.9106 B(337-C ,345-H ) :   0.9367 B(338-C ,339-C ) :   1.4040 
B(338-C ,344-N ) :   1.3279 B(339-C ,340-C ) :   1.3195 B(339-C ,346-H ) :   0.9140 
B(340-C ,341-C ) :   1.4243 B(340-C ,347-H ) :   0.9655 B(341-C ,342-C ) :   1.3168 
B(341-C ,348-H ) :   0.9101 B(342-C ,343-C ) :   0.8737 B(342-C ,344-N ) :   1.3288 
B(343-C ,349-H ) :   0.9495 B(343-C ,350-H ) :   0.9482 B(343-C ,351-H ) :   0.9533 


-------
TIMINGS
-------

Total SCF time: 0 days 0 hours 15 min 19 sec 

Total time                  ....     919.441 sec
Sum of individual times     ....     870.532 sec  ( 94.7%)

Fock matrix formation       ....     514.560 sec  ( 56.0%)
  Split-RI-J                ....     323.735 sec  ( 62.9% of F)
  XC integration            ....     163.550 sec  ( 31.8% of F)
    Basis function eval.    ....      14.381 sec  (  8.8% of XC)
    Density eval.           ....      96.575 sec  ( 59.0% of XC)
    XC-Functional eval.     ....       3.625 sec  (  2.2% of XC)
    XC-Potential eval.      ....      28.421 sec  ( 17.4% of XC)
Diagonalization             ....     121.202 sec  ( 13.2%)
Density matrix formation    ....      11.813 sec  (  1.3%)
Population analysis         ....      69.481 sec  (  7.6%)
Initial guess               ....      19.295 sec  (  2.1%)
Orbital Transformation      ....       0.000 sec  (  0.0%)
Orbital Orthonormalization  ....       0.000 sec  (  0.0%)
DIIS solution               ....      98.271 sec  ( 10.7%)
Grid generation             ....      35.910 sec  (  3.9%)

Maximum memory used throughout the entire SCF-calculation: 2474.9 MB


-------------------------------------------------------------------------------
                          DFT DISPERSION CORRECTION                            
                                                                               
                                 DFTD4 V2.5                                    
-------------------------------------------------------------------------------
The R2SCAN3C composite method is recognized
Using three-body term ABC
Active option DFTDOPT                   ...         5   

Starting D4
-------------------------   ----------------
Dispersion correction           -0.290540802
-------------------------   ----------------

NOTIFICATION: Different basis set in ORCA and otool_gcp:
ORCA: 4848  gCP: 4840 
If you are NOT using ECPs, check your basis set inputs!
------------------   -----------------
gCP correction             0.158613254
------------------   -----------------

-------------------------   --------------------
FINAL SINGLE POINT ENERGY    -15373.297621989330
-------------------------   --------------------


                            ***************************************
                            *     ORCA property calculations      *
                            ***************************************

                                    ---------------------
                                    Active property flags
                                    ---------------------
   (+) Dipole Moment


------------------------------------------------------------------------------
                       ORCA ELECTRIC PROPERTIES CALCULATION
------------------------------------------------------------------------------

Dipole Moment Calculation                       ... on
Quadrupole Moment Calculation                   ... off
Polarizability Calculation                      ... off
GBWName                                         ... Tetrahedron_l0_ald2_ORCA_DFT.gbw
Electron density                                ... Tetrahedron_l0_ald2_ORCA_DFT.scfp
The origin for moment calculation is the CENTER OF MASS  = ( 0.306793, -0.089342  0.087626)

-------------
DIPOLE MOMENT
-------------
                                X             Y             Z
Electronic contribution:      0.03570      -0.00608       0.01260
Nuclear contribution   :      0.31968      -0.21244       0.28121
                        -----------------------------------------
Total Dipole Moment    :      0.35538      -0.21852       0.29382
                        -----------------------------------------
Magnitude (a.u.)       :      0.51027
Magnitude (Debye)      :      1.29700



--------------------
Rotational spectrum 
--------------------
 
Rotational constants in cm-1:     0.000114     0.000114     0.000111 
Rotational constants in MHz :     3.412546     3.404691     3.335011 

 Dipole components along the rotational axes: 
x,y,z [a.u.] :    -0.509185     0.032978    -0.004075 
x,y,z [Debye]:    -1.294246     0.083825    -0.010357 

 

Timings for individual modules:

Sum of individual times         ...      942.289 sec (=  15.705 min)
GTO integral calculation        ...       20.223 sec (=   0.337 min)   2.1 %
SCF iterations                  ...      922.067 sec (=  15.368 min)  97.9 %
                             ****ORCA TERMINATED NORMALLY****
TOTAL RUN TIME: 0 days 0 hours 15 minutes 52 seconds 32 msec
