
                                 *****************
                                 * O   R   C   A *
                                 *****************

                                            #,                                       
                                            ###                                      
                                            ####                                     
                                            #####                                    
                                            ######                                   
                                           ########,                                 
                                     ,,################,,,,,                         
                               ,,#################################,,                 
                          ,,##########################################,,             
                       ,#########################################, ''#####,          
                    ,#############################################,,   '####,        
                  ,##################################################,,,,####,       
                ,###########''''           ''''###############################       
              ,#####''   ,,,,##########,,,,          '''####'''          '####       
            ,##' ,,,,###########################,,,                        '##       
           ' ,,###''''                  '''############,,,                           
         ,,##''                                '''############,,,,        ,,,,,,###''
      ,#''                                            '''#######################'''  
     '                                                          ''''####''''         
             ,#######,   #######,   ,#######,      ##                                
            ,#'     '#,  ##    ##  ,#'     '#,    #''#        ######   ,####,        
            ##       ##  ##   ,#'  ##            #'  '#       #        #'  '#        
            ##       ##  #######   ##           ,######,      #####,   #    #        
            '#,     ,#'  ##    ##  '#,     ,#' ,#      #,         ##   #,  ,#        
             '#######'   ##     ##  '#######'  #'      '#     #####' # '####'        



                  #######################################################
                  #                        -***-                        #
                  #          Department of theory and spectroscopy      #
                  #    Directorship and core code : Frank Neese         #
                  #        Max Planck Institute fuer Kohlenforschung    #
                  #                Kaiser Wilhelm Platz 1               #
                  #                 D-45470 Muelheim/Ruhr               #
                  #                      Germany                        #
                  #                                                     #
                  #                  All rights reserved                #
                  #                        -***-                        #
                  #######################################################


                         Program Version 5.0.4 -  RELEASE  -


 With contributions from (in alphabetic order):
   Daniel Aravena         : Magnetic Suceptibility
   Michael Atanasov       : Ab Initio Ligand Field Theory (pilot matlab implementation)
   Alexander A. Auer      : GIAO ZORA, VPT2 properties, NMR spectrum
   Ute Becker             : Parallelization
   Giovanni Bistoni       : ED, misc. LED, open-shell LED, HFLD
   Martin Brehm           : Molecular dynamics
   Dmytro Bykov           : SCF Hessian
   Vijay G. Chilkuri      : MRCI spin determinant printing, contributions to CSF-ICE
   Dipayan Datta          : RHF DLPNO-CCSD density
   Achintya Kumar Dutta   : EOM-CC, STEOM-CC
   Dmitry Ganyushin       : Spin-Orbit,Spin-Spin,Magnetic field MRCI
   Miquel Garcia          : C-PCM and meta-GGA Hessian, CC/C-PCM, Gaussian charge scheme
   Yang Guo               : DLPNO-NEVPT2, F12-NEVPT2, CIM, IAO-localization
   Andreas Hansen         : Spin unrestricted coupled pair/coupled cluster methods
   Benjamin Helmich-Paris : MC-RPA, TRAH-SCF, COSX integrals
   Lee Huntington         : MR-EOM, pCC
   Robert Izsak           : Overlap fitted RIJCOSX, COSX-SCS-MP3, EOM
   Marcus Kettner         : VPT2
   Christian Kollmar      : KDIIS, OOCD, Brueckner-CCSD(T), CCSD density, CASPT2, CASPT2-K
   Simone Kossmann        : Meta GGA functionals, TD-DFT gradient, OOMP2, MP2 Hessian
   Martin Krupicka        : Initial AUTO-CI
   Lucas Lang             : DCDCAS
   Marvin Lechner         : AUTO-CI (C++ implementation), FIC-MRCC
   Dagmar Lenk            : GEPOL surface, SMD
   Dimitrios Liakos       : Extrapolation schemes; Compound Job, initial MDCI parallelization
   Dimitrios Manganas     : Further ROCIS development; embedding schemes
   Dimitrios Pantazis     : SARC Basis sets
   Anastasios Papadopoulos: AUTO-CI, single reference methods and gradients
   Taras Petrenko         : DFT Hessian,TD-DFT gradient, ASA, ECA, R-Raman, ABS, FL, XAS/XES, NRVS
   Peter Pinski           : DLPNO-MP2, DLPNO-MP2 Gradient
   Christoph Reimann      : Effective Core Potentials
   Marius Retegan         : Local ZFS, SOC
   Christoph Riplinger    : Optimizer, TS searches, QM/MM, DLPNO-CCSD(T), (RO)-DLPNO pert. Triples
   Tobias Risthaus        : Range-separated hybrids, TD-DFT gradient, RPA, STAB
   Michael Roemelt        : Original ROCIS implementation
   Masaaki Saitow         : Open-shell DLPNO-CCSD energy and density
   Barbara Sandhoefer     : DKH picture change effects
   Avijit Sen             : IP-ROCIS
   Kantharuban Sivalingam : CASSCF convergence, NEVPT2, FIC-MRCI
   Bernardo de Souza      : ESD, SOC TD-DFT
   Georgi Stoychev        : AutoAux, RI-MP2 NMR, DLPNO-MP2 response
   Willem Van den Heuvel  : Paramagnetic NMR
   Boris Wezisla          : Elementary symmetry handling
   Frank Wennmohs         : Technical directorship


 We gratefully acknowledge several colleagues who have allowed us to
 interface, adapt or use parts of their codes:
   Stefan Grimme, W. Hujo, H. Kruse, P. Pracht,  : VdW corrections, initial TS optimization,
                  C. Bannwarth, S. Ehlert          DFT functionals, gCP, sTDA/sTD-DF
   Ed Valeev, F. Pavosevic, A. Kumar             : LibInt (2-el integral package), F12 methods
   Garnet Chan, S. Sharma, J. Yang, R. Olivares  : DMRG
   Ulf Ekstrom                                   : XCFun DFT Library
   Mihaly Kallay                                 : mrcc  (arbitrary order and MRCC methods)
   Jiri Pittner, Ondrej Demel                    : Mk-CCSD
   Frank Weinhold                                : gennbo (NPA and NBO analysis)
   Christopher J. Cramer and Donald G. Truhlar   : smd solvation model
   Lars Goerigk                                  : TD-DFT with DH, B97 family of functionals
   V. Asgeirsson, H. Jonsson                     : NEB implementation
   FAccTs GmbH                                   : IRC, NEB, NEB-TS, DLPNO-Multilevel, CI-OPT
                                                   MM, QMMM, 2- and 3-layer-ONIOM, Crystal-QMMM,
                                                   LR-CPCM, SF, NACMEs, symmetry and pop. for TD-DFT,
                                                   nearIR, NL-DFT gradient (VV10), updates on ESD,
                                                   ML-optimized integration grids
   S Lehtola, MJT Oliveira, MAL Marques          : LibXC Library
   Liviu Ungur et al                             : ANISO software


 Your calculation uses the libint2 library for the computation of 2-el integrals
 For citations please refer to: http://libint.valeyev.net

 Your ORCA version has been built with support for libXC version: 5.1.0
 For citations please refer to: https://tddft.org/programs/libxc/

 This ORCA versions uses:
   CBLAS   interface :  Fast vector & matrix operations
   LAPACKE interface :  Fast linear algebra routines
   SCALAPACK package :  Parallel linear algebra routines
   Shared memory     :  Shared parallel matrices
   BLAS/LAPACK       :  OpenBLAS 0.3.15  USE64BITINT DYNAMIC_ARCH NO_AFFINITY Prescott SINGLE_THREADED
        Core in use  :  Prescott
   Copyright (c) 2011-2014, The OpenBLAS Project




***************************************
The coordinates will be read from file: /rds/user/pcpt3/hpc-work/CageConstruction/GreenawayCollab/Tetrahedrons_ORCA_DFT/Tetrahedron_l0_ald1_ORCA_DFT/Tetrahedron_l0_ald1_XTB.xyz
***************************************


Your calculation utilizes the geometrical counterpoise correction gCP
Please cite in your paper:
H.Kruse, S. Grimme J.Chem.Phys., 136, (2012), 154101 
   

Your calculation utilizes the atom-pairwise dispersion correction
based on tight binding partial charges (D4)
Cite in your paper:
E.Caldeweyher, C.Bannwarth, S.Grimme, J.Chem.Phys., (2017), 147, 034112.
E.Caldeweyher, S.Ehlert, A.Hansen, H.Neugebauer, S.Grimme, J.Chem.Phys., (2018), in progress.
   

================================================================================

----- Orbital basis set information -----
Your calculation utilizes the basis: def2-mTZVPP
   Stefan Grimme, Andreas Hansen, Sebastian Ehlert, and Jan-Michael Mewes 
   J. Chem. Phys. 154, 000000 (2021). DOI: 10.1063/5.0040021

----- AuxJ basis set information -----
Your calculation utilizes the auxiliary basis: def2/J
   F. Weigend, Phys. Chem. Chem. Phys. 8, 1057 (2006).

================================================================================
                                        WARNINGS
                       Please study these warnings very carefully!
================================================================================

Using LibXC functional ID 497 : Re-regularized SCAN exchange by Furness et al
[ 1]  J. W. Furness, A. D. Kaplan, J. Ning, J. P. Perdew, and J. Sun, J. Phys. Chem. Lett. 11, 8208 (2020)
[ 2]  J. W. Furness, A. D. Kaplan, J. Ning, J. P. Perdew, and J. Sun, J. Phys. Chem. Lett. 11, 9248 (2020)
Using LibXC functional ID 498 : Re-regularized SCAN correlation by Furness et al
[ 1]  J. W. Furness, A. D. Kaplan, J. Ning, J. P. Perdew, and J. Sun, J. Phys. Chem. Lett. 11, 8208 (2020)
[ 2]  J. W. Furness, A. D. Kaplan, J. Ning, J. P. Perdew, and J. Sun, J. Phys. Chem. Lett. 11, 9248 (2020)
Using LibXC functional ID 497 : Re-regularized SCAN exchange by Furness et al
[ 1]  J. W. Furness, A. D. Kaplan, J. Ning, J. P. Perdew, and J. Sun, J. Phys. Chem. Lett. 11, 8208 (2020)
[ 2]  J. W. Furness, A. D. Kaplan, J. Ning, J. P. Perdew, and J. Sun, J. Phys. Chem. Lett. 11, 9248 (2020)
Using LibXC functional ID 498 : Re-regularized SCAN correlation by Furness et al
[ 1]  J. W. Furness, A. D. Kaplan, J. Ning, J. P. Perdew, and J. Sun, J. Phys. Chem. Lett. 11, 8208 (2020)
[ 2]  J. W. Furness, A. D. Kaplan, J. Ning, J. P. Perdew, and J. Sun, J. Phys. Chem. Lett. 11, 9248 (2020)

INFO   : the flag for use of the SHARK integral package has been found!

================================================================================
                                       INPUT FILE
================================================================================
NAME = Tetrahedron_l0_ald1_ORCA_DFT.inp
|  1> ! r2SCAN-3c ENERGY TightSCF defgrid3 def2/J 
|  2> %PAL NPROCS 60 END 
|  3> %maxcore 5316 
|  4> 
|  5> *xyzfile 8 1 /rds/user/pcpt3/hpc-work/CageConstruction/GreenawayCollab/Tetrahedrons_ORCA_DFT/Tetrahedron_l0_ald1_ORCA_DFT/Tetrahedron_l0_ald1_XTB.xyz 
|  6> 
|  7>                          ****END OF INPUT****
================================================================================

                       ****************************
                       * Single Point Calculation *
                       ****************************

---------------------------------
CARTESIAN COORDINATES (ANGSTROEM)
---------------------------------
  C     -1.320900   -1.875400    6.151100
  C     -1.540900   -3.250800    6.035800
  C     -1.267900   -3.907000    4.849300
  C     -0.805500   -1.183600    5.055700
  C     -0.544500   -1.843500    3.873000
  C     -0.771100   -3.212600    3.750000
  C     -0.458000   -3.872500    2.461500
  C      0.867000   -3.988000    2.059700
  C      1.199000   -4.526400    0.817200
  C      2.607400   -4.636300    0.399900
  C      3.544200   -3.687400    0.810000
  C      4.868000   -3.776100    0.433600
  C      5.293600   -4.796100   -0.418800
  C      4.367000   -5.751200   -0.835400
  C      3.053300   -5.679000   -0.415800
  C      0.166800   -4.920600   -0.030900
  C     -1.167100   -4.814400    0.354300
  C     -2.243400   -5.165600   -0.588900
  C     -2.144500   -4.779100   -1.924700
  C     -3.154300   -5.056200   -2.821600
  C     -4.321600   -5.691700   -2.400800
  C     -4.421600   -6.102500   -1.073200
  C     -3.389000   -5.852400   -0.186700
  C     -1.470700   -4.306200    1.615600
  H     -1.890900   -3.816200    6.886500
  H     -1.430300   -4.971700    4.779800
  H     -0.640700   -0.122000    5.130100
  H     -0.162900   -1.288700    3.028100
  H      1.644500   -3.684300    2.744100
  H      3.231700   -2.855500    1.422400
  H      5.573600   -3.025200    0.754400
  H      4.694700   -6.568600   -1.459000
  H      2.367300   -6.457700   -0.710400
  H      0.402600   -5.315900   -1.007200
  H     -1.271300   -4.241000   -2.262800
  H     -3.066000   -4.742200   -3.849600
  H     -5.295800   -6.648000   -0.749900
  H     -3.467200   -6.209200    0.829400
  H     -2.500700   -4.207000    1.925300
  C     -1.618000    2.031500    5.865000
  C     -2.867300    1.441100    5.676300
  C     -3.438000    1.401400    4.419800
  C     -0.966100    2.588500    4.763700
  C     -1.527200    2.508200    3.505900
  C     -2.773700    1.916000    3.304100
  C     -3.357000    1.829900    1.953700
  C     -4.094000    0.711800    1.571200
  C     -4.642200    0.615200    0.295200
  C     -5.369300   -0.601600   -0.110400
  C     -4.858900   -1.854500    0.225100
  C     -5.496600   -3.011400   -0.170900
  C     -6.647800   -2.953000   -0.954300
  C     -7.177900   -1.706100   -1.279100
  C     -6.550400   -0.549100   -0.850600
  C     -4.439900    1.652200   -0.610300
  C     -3.679000    2.767700   -0.265000
  C     -3.368800    3.811700   -1.257100
  C     -3.158900    3.474100   -2.594800
  C     -2.780600    4.421500   -3.522800
  C     -2.557400    5.742900   -3.132500
  C     -2.806200    6.100600   -1.808800
  C     -3.220400    5.151900   -0.894100
  C     -3.153200    2.846400    1.022900
  H     -3.400000    1.048300    6.528400
  H     -4.425700    0.982300    4.306500
  H      0.006300    3.038200    4.895300
  H     -0.977700    2.899500    2.663200
  H     -4.244600   -0.093600    2.273900
  H     -3.942600   -1.924600    0.792600
  H     -5.084200   -3.973400    0.089200
  H     -8.099500   -1.648600   -1.838900
  H     -6.993400    0.408300   -1.081000
  H     -4.877600    1.585800   -1.594800
  H     -3.272400    2.448900   -2.912900
  H     -2.597500    4.132900   -4.547400
  H     -2.707800    7.135000   -1.515000
  H     -3.450700    5.459400    0.114800
  H     -2.577600    3.714500    1.304800
  C      1.916000    0.209900    6.134000
  C      2.113900    1.560200    5.852000
  C      2.540800    1.958100    4.600100
  C      2.197700   -0.729800    5.141200
  C      2.585900   -0.320300    3.882500
  C      2.751100    1.030900    3.577200
  C      3.095200    1.456500    2.208900
  C      2.544200    2.621000    1.679400
  C      2.806600    3.015100    0.369300
  C      2.179000    4.226700   -0.187300
  C      0.884300    4.587600    0.185800
  C      0.276100    5.713300   -0.329900
  C      0.930200    6.494500   -1.283400
  C      2.226300    6.146300   -1.661200
  C      2.842000    5.041400   -1.107400
  C      3.643800    2.224100   -0.413700
  C      4.211500    1.055300    0.089900
  C      5.052600    0.195400   -0.761600
  C      4.782700    0.062100   -2.124300
  C      5.522900   -0.786300   -2.921200
  C      6.535000   -1.573000   -2.369000
  C      6.838500   -1.419700   -1.017900
  C      6.119800   -0.536000   -0.236000
  C      3.929100    0.684600    1.403200
  H      1.968200    2.288600    6.635500
  H      2.733600    3.004600    4.418100
  H      2.054800   -1.780100    5.349100
  H      2.742700   -1.064300    3.116500
  H      1.904200    3.230400    2.298300
  H      0.334700    3.968600    0.878500
  H     -0.731700    5.967100   -0.038100
  H      2.758300    6.770600   -2.362000
  H      3.862600    4.820600   -1.378700
  H      3.855900    2.525200   -1.427900
  H      3.967700    0.615700   -2.565900
  H      5.285200   -0.888800   -3.969900
  H      7.667600   -1.969600   -0.598200
  H      6.404400   -0.397300    0.796100
  H      4.368200   -0.215500    1.804700
  C     -5.333900   -2.701500   -4.536400
  C     -4.436700   -3.308800   -5.412200
  C     -3.147400   -2.821200   -5.538700
  C     -4.915900   -1.587900   -3.810000
  C     -3.619800   -1.130500   -3.915000
  C     -2.709600   -1.736100   -4.780000
  C     -1.328500   -1.227300   -4.850100
  C     -0.240400   -2.096700   -4.841300
  C      1.058500   -1.604800   -4.802400
  C      2.210200   -2.520200   -4.631800
  C      2.870600   -2.531500   -3.405200
  C      3.952400   -3.358900   -3.188900
  C      4.395900   -4.218700   -4.192800
  C      3.743700   -4.202900   -5.428900
  C      2.665600   -3.362700   -5.641700
  C      1.273200   -0.230700   -4.828400
  C      0.200300    0.651700   -4.866500
  C      0.421200    2.115500   -4.862000
  C      0.966700    2.776100   -5.960100
  C      1.160800    4.144600   -5.939400
  C      0.815600    4.891900   -4.809400
  C      0.251900    4.232800   -3.717500
  C      0.064900    2.865800   -3.744000
  C     -1.093400    0.145800   -4.853900
  H     -4.765200   -4.140300   -6.018000
  H     -2.476200   -3.279600   -6.249500
  H     -5.606200   -1.110300   -3.133100
  H     -3.303600   -0.298300   -3.303900
  H     -0.403600   -3.164300   -4.818900
  H      2.528000   -1.885700   -2.609900
  H      4.442300   -3.367500   -2.230300
  H      4.101600   -4.822000   -6.238000
  H      2.179900   -3.353600   -6.605500
  H      2.282900    0.152700   -4.812400
  H      1.229000    2.214300   -6.843600
  H      1.548000    4.638300   -6.818100
  H     -0.008400    4.795800   -2.837200
  H     -0.356700    2.370900   -2.881200
  H     -1.926900    0.831700   -4.883600
  Zn    -0.449000    0.339000    8.378700
  C     -2.610200    1.135200   10.512100
  N     -2.260100    0.378800    9.482700
  C     -3.063600   -0.640100    9.134000
  C     -2.677600   -1.414500    7.971700
  N     -1.616000   -1.150500    7.310700
  C     -4.239300   -0.927700    9.827500
  C     -4.593700   -0.137800   10.912300
  C     -3.765200    0.919600   11.256700
  H     -1.944800    1.949300   10.762200
  H     -3.370200   -2.196500    7.659700
  H     -4.860200   -1.756500    9.524600
  H     -5.493600   -0.340900   11.472100
  H     -4.003100    1.564900   12.087200
  C     -0.104500   -1.564700   10.886700
  N      0.349500   -1.145000    9.714500
  C      1.521100   -1.632800    9.275800
  C      2.007500   -1.135100    8.006100
  N      1.419400   -0.191000    7.379400
  C      2.261900   -2.561400   10.007200
  C      1.780100   -2.993800   11.234500
  C      0.570900   -2.483900   11.682200
  H     -1.045000   -1.149700   11.219700
  H      2.925900   -1.585000    7.627700
  H      3.202200   -2.927200    9.625000
  H      2.334700   -3.705300   11.826600
  H      0.156800   -2.786000   12.630900
  C      1.064900    1.945700   10.607100
  N      0.419000    1.955400    9.450900
  C      0.159200    3.140400    8.873600
  C     -0.549400    3.111200    7.609200
  N     -1.006900    2.023200    7.123700
  C      0.543700    4.349300    9.452700
  C      1.214200    4.331600   10.668200
  C      1.482800    3.104200   11.254400
  H      1.260000    0.977100   11.044200
  H     -0.689000    4.067200    7.103200
  H      0.313000    5.283600    8.964600
  H      1.518000    5.251100   11.144200
  H      2.003500    3.040100   12.196500
  Zn    -7.348200   -5.003200   -3.401600
  C     -8.300200   -6.296900   -6.091300
  N     -7.335200   -6.115300   -5.201800
  C     -6.167400   -6.752600   -5.385400
  C     -5.140200   -6.541900   -4.383800
  N     -5.373200   -5.902400   -3.304800
  C     -5.943100   -7.591100   -6.476700
  C     -6.960800   -7.781900   -7.401400
  C     -8.162800   -7.119400   -7.204800
  H     -9.226700   -5.769200   -5.914000
  H     -4.163500   -6.984200   -4.584000
  H     -4.994300   -8.092200   -6.590900
  H     -6.819300   -8.431100   -8.251700
  H     -8.981800   -7.236000   -7.896600
  C     -8.778900   -7.685500   -2.655300
  N     -8.226800   -6.549200   -2.256400
  C     -8.243600   -6.254500   -0.946400
  C     -7.646200   -4.993800   -0.549100
  N     -7.252000   -4.136600   -1.406900
  C     -8.818700   -7.104000   -0.002100
  C     -9.400900   -8.290300   -0.427600
  C     -9.378600   -8.586900   -1.781800
  H     -8.747800   -7.892000   -3.715900
  H     -7.579200   -4.800000    0.522300
  H     -8.819600   -6.834000    1.042600
  H     -9.860600   -8.964000    0.279000
  H     -9.817700   -9.496700   -2.159200
  C    -10.424000   -4.468800   -3.647000
  N     -9.183000   -4.041300   -3.827100
  C     -8.995500   -2.847000   -4.411600
  C     -7.623100   -2.419400   -4.605400
  N     -6.637700   -3.195200   -4.373900
  C    -10.060700   -2.049900   -4.829000
  C    -11.358400   -2.506700   -4.643200
  C    -11.542900   -3.740700   -4.038300
  H    -10.538800   -5.433500   -3.173100
  H     -7.474900   -1.408900   -4.988400
  H     -9.874600   -1.097000   -5.300000
  H    -12.202700   -1.915600   -4.963100
  H    -12.532200   -4.136400   -3.872400
  Zn     7.361800   -4.685200   -2.919200
  C     10.421300   -4.526000   -2.242100
  N      9.171100   -4.584600   -1.808700
  C      8.957400   -4.699000   -0.487200
  C      7.576300   -4.758900   -0.050500
  N      6.612900   -4.823500   -0.884900
  C     10.003900   -4.760100    0.432300
  C     11.311700   -4.705400   -0.030000
  C     11.523300   -4.582300   -1.394700
  H     10.559400   -4.432200   -3.309600
  H      7.402300   -4.764500    1.026100
  H      9.796100   -4.858400    1.486600
  H     12.142400   -4.757700    0.656800
  H     12.521200   -4.532700   -1.800400
  C      8.409300   -7.643200   -2.811100
  N      7.468100   -6.788400   -3.182400
  C      6.482800   -7.228700   -3.982700
  C      5.441400   -6.281800   -4.326600
  N      5.461800   -5.076600   -3.901400
  C      6.431200   -8.546100   -4.438900
  C      7.427600   -9.433000   -4.055300
  C      8.433000   -8.973100   -3.218300
  H      9.183500   -7.258300   -2.162600
  H      4.612500   -6.668800   -4.919700
  H      5.628500   -8.866600   -5.084800
  H      7.417800  -10.456000   -4.398600
  H      9.224100   -9.627100   -2.887800
  C      8.981900   -5.251300   -5.580300
  N      8.351800   -4.381900   -4.803400
  C      8.365200   -3.087000   -5.158500
  C      7.693800   -2.155200   -4.276600
  N      7.213800   -2.515800   -3.150000
  C      9.010800   -2.637400   -6.310400
  C      9.670200   -3.554100   -7.116700
  C      9.654100   -4.889100   -6.742600
  H      8.962400   -6.285200   -5.266900
  H      7.649800   -1.117500   -4.608500
  H      9.004900   -1.587900   -6.560700
  H     10.185400   -3.235100   -8.009600
  H     10.154800   -5.638900   -7.334200
  Zn    -0.238900    7.873500   -3.976000
  C     -0.521400    9.192200   -6.842600
  N     -0.981500    8.338000   -5.939800
  C     -2.132500    7.697300   -6.201200
  C     -2.624100    6.787700   -5.187800
  N     -2.064700    6.682500   -4.044900
  C     -2.846400    7.899900   -7.382400
  C     -2.359000    8.798600   -8.320500
  C     -1.170600    9.457000   -8.043700
  H      0.402400    9.699500   -6.604700
  H     -3.519600    6.218500   -5.438500
  H     -3.770900    7.370900   -7.554800
  H     -2.893200    8.982300   -9.239900
  H     -0.752400   10.166500   -8.739700
  C     -1.888600   10.520200   -3.632500
  N     -1.213100    9.531200   -3.067300
  C     -1.006200    9.574700   -1.740400
  C     -0.259100    8.476500   -1.158600
  N      0.275700    7.574900   -1.885600
  C     -1.476000   10.622200   -0.949100
  C     -2.177700   11.658700   -1.549700
  C     -2.390300   11.603900   -2.918600
  H     -2.038800   10.455000   -4.700600
  H     -0.159000    8.471400   -0.072600
  H     -1.286500   10.628500    0.113200
  H     -2.547500   12.486500   -0.964500
  H     -2.931700   12.384500   -3.428800
  C      1.823800   10.223900   -4.207100
  N      1.542700    8.942000   -4.386700
  C      2.419700    8.182100   -5.063400
  C      2.106100    6.773900   -5.198000
  N      1.034800    6.270700   -4.714700
  C      3.602800    8.704300   -5.587000
  C      3.885300   10.051000   -5.404900
  C      2.980000   10.824600   -4.694200
  H      1.099200   10.804600   -3.654100
  H      2.861000    6.157300   -5.686400
  H      4.284400    8.068100   -6.130100
  H      4.789000   10.484100   -5.805200
  H      3.160100   11.873600   -4.521400

----------------------------
CARTESIAN COORDINATES (A.U.)
----------------------------
  NO LB      ZA    FRAG     MASS         X           Y           Z
   0 C     6.0000    0    12.011   -2.496139   -3.543992   11.623894
   1 C     6.0000    0    12.011   -2.911879   -6.143122   11.406009
   2 C     6.0000    0    12.011   -2.395984   -7.383160    9.163849
   3 C     6.0000    0    12.011   -1.522174   -2.236680    9.553888
   4 C     6.0000    0    12.011   -1.028956   -3.483710    7.318909
   5 C     6.0000    0    12.011   -1.457168   -6.070934    7.086473
   6 C     6.0000    0    12.011   -0.865495   -7.317964    4.651561
   7 C     6.0000    0    12.011    1.638393   -7.536228    3.892269
   8 C     6.0000    0    12.011    2.265782   -8.553656    1.544284
   9 C     6.0000    0    12.011    4.927272   -8.761337    0.755701
  10 C     6.0000    0    12.011    6.697567   -6.968176    1.530678
  11 C     6.0000    0    12.011    9.199187   -7.135795    0.819385
  12 C     6.0000    0    12.011   10.003454   -9.063316   -0.791417
  13 C     6.0000    0    12.011    8.252434  -10.868193   -1.578677
  14 C     6.0000    0    12.011    5.769901  -10.731755   -0.785748
  15 C     6.0000    0    12.011    0.315206   -9.298586   -0.058393
  16 C     6.0000    0    12.011   -2.205499   -9.097897    0.669530
  17 C     6.0000    0    12.011   -4.239412   -9.761569   -1.112860
  18 C     6.0000    0    12.011   -4.052518   -9.031190   -3.637156
  19 C     6.0000    0    12.011   -5.960763   -9.554833   -5.332051
  20 C     6.0000    0    12.011   -8.166640  -10.755754   -4.536855
  21 C     6.0000    0    12.011   -8.355613  -11.532054   -2.028054
  22 C     6.0000    0    12.011   -6.404282  -11.059433   -0.352812
  23 C     6.0000    0    12.011   -2.779220   -8.137539    3.053042
  24 H     1.0000    0     1.008   -3.573283   -7.211573   13.013599
  25 H     1.0000    0     1.008   -2.702875   -9.395151    9.032513
  26 H     1.0000    0     1.008   -1.210748   -0.230547    9.694484
  27 H     1.0000    0     1.008   -0.307836   -2.435290    5.722280
  28 H     1.0000    0     1.008    3.107655   -6.962318    5.185597
  29 H     1.0000    0     1.008    6.107028   -5.396113    2.687946
  30 H     1.0000    0     1.008   10.532578   -5.716800    1.425609
  31 H     1.0000    0     1.008    8.871697  -12.412855   -2.757110
  32 H     1.0000    0     1.008    4.473549  -12.203284   -1.342461
  33 H     1.0000    0     1.008    0.760804  -10.045595   -1.903332
  34 H     1.0000    0     1.008   -2.402409   -8.014329   -4.276072
  35 H     1.0000    0     1.008   -5.793900   -8.961459   -7.274690
  36 H     1.0000    0     1.008  -10.007612  -12.562899   -1.417106
  37 H     1.0000    0     1.008   -6.552058  -11.733688    1.567339
  38 H     1.0000    0     1.008   -4.725638   -7.950078    3.638290
  39 C     6.0000    0    12.011   -3.057577    3.838979   11.083244
  40 C     6.0000    0    12.011   -5.418412    2.723284   10.726652
  41 C     6.0000    0    12.011   -6.496878    2.648262    8.352212
  42 C     6.0000    0    12.011   -1.825664    4.891556    9.002088
  43 C     6.0000    0    12.011   -2.885990    4.739811    6.625191
  44 C     6.0000    0    12.011   -5.241533    3.620715    6.243844
  45 C     6.0000    0    12.011   -6.343811    3.458010    3.691958
  46 C     6.0000    0    12.011   -7.736539    1.345107    2.969138
  47 C     6.0000    0    12.011   -8.772487    1.162560    0.557847
  48 C     6.0000    0    12.011  -10.146507   -1.136859   -0.208626
  49 C     6.0000    0    12.011   -9.181990   -3.504497    0.425377
  50 C     6.0000    0    12.011  -10.387069   -5.690721   -0.322954
  51 C     6.0000    0    12.011  -12.562521   -5.580361   -1.803366
  52 C     6.0000    0    12.011  -13.564265   -3.224062   -2.417149
  53 C     6.0000    0    12.011  -12.378462   -1.037649   -1.607401
  54 C     6.0000    0    12.011   -8.390195    3.122206   -1.153300
  55 C     6.0000    0    12.011   -6.952302    5.230195   -0.500777
  56 C     6.0000    0    12.011   -6.366109    7.203069   -2.375575
  57 C     6.0000    0    12.011   -5.969456    6.565098   -4.903461
  58 C     6.0000    0    12.011   -5.254572    8.355424   -6.657127
  59 C     6.0000    0    12.011   -4.832786   10.852508   -5.919567
  60 C     6.0000    0    12.011   -5.302949   11.528463   -3.418137
  61 C     6.0000    0    12.011   -6.085674    9.735680   -1.689604
  62 C     6.0000    0    12.011   -5.958684    5.378916    1.933001
  63 H     1.0000    0     1.008   -6.425069    1.981000   12.336888
  64 H     1.0000    0     1.008   -8.363361    1.856278    8.138106
  65 H     1.0000    0     1.008    0.011905    5.741366    9.250776
  66 H     1.0000    0     1.008   -1.847585    5.479261    5.032719
  67 H     1.0000    0     1.008   -8.021132   -0.176878    4.297048
  68 H     1.0000    0     1.008   -7.450434   -3.636967    1.497797
  69 H     1.0000    0     1.008   -9.607746   -7.508638    0.168564
  70 H     1.0000    0     1.008  -15.305837   -3.115403   -3.475017
  71 H     1.0000    0     1.008  -13.215611    0.771575   -2.042794
  72 H     1.0000    0     1.008   -9.217328    2.996728   -3.013735
  73 H     1.0000    0     1.008   -6.183940    4.627750   -5.504583
  74 H     1.0000    0     1.008   -4.908564    7.810049   -8.593341
  75 H     1.0000    0     1.008   -5.117000   13.483196   -2.862935
  76 H     1.0000    0     1.008   -6.520878   10.316771    0.216941
  77 H     1.0000    0     1.008   -4.870958    7.019388    2.465715
  78 C     6.0000    0    12.011    3.620715    0.396654   11.591580
  79 C     6.0000    0    12.011    3.994692    2.948351   11.058677
  80 C     6.0000    0    12.011    4.801416    3.700273    8.692929
  81 C     6.0000    0    12.011    4.153051   -1.379122    9.715460
  82 C     6.0000    0    12.011    4.886643   -0.605279    7.336862
  83 C     6.0000    0    12.011    5.198826    1.948119    6.759928
  84 C     6.0000    0    12.011    5.849080    2.752386    4.174216
  85 C     6.0000    0    12.011    4.807841    4.952972    3.173606
  86 C     6.0000    0    12.011    5.303705    5.697713    0.697876
  87 C     6.0000    0    12.011    4.117713    7.987305   -0.353946
  88 C     6.0000    0    12.011    1.671085    8.669308    0.351111
  89 C     6.0000    0    12.011    0.521753   10.796572   -0.623421
  90 C     6.0000    0    12.011    1.757823   12.272826   -2.425275
  91 C     6.0000    0    12.011    4.207097   11.614824   -3.139213
  92 C     6.0000    0    12.011    5.370602    9.526865   -2.092683
  93 C     6.0000    0    12.011    6.885784    4.202940   -0.781780
  94 C     6.0000    0    12.011    7.958582    1.994228    0.169886
  95 C     6.0000    0    12.011    9.548030    0.369252   -1.439215
  96 C     6.0000    0    12.011    9.037993    0.117352   -4.014345
  97 C     6.0000    0    12.011   10.436768   -1.485892   -5.520268
  98 C     6.0000    0    12.011   12.349360   -2.972539   -4.476761
  99 C     6.0000    0    12.011   12.922892   -2.682844   -1.923552
 100 C     6.0000    0    12.011   11.564746   -1.012893   -0.445975
 101 C     6.0000    0    12.011    7.424923    1.293707    2.651664
 102 H     1.0000    0     1.008    3.719359    4.324827   12.539278
 103 H     1.0000    0     1.008    5.165755    5.677871    8.348999
 104 H     1.0000    0     1.008    3.883009   -3.363901   10.108334
 105 H     1.0000    0     1.008    5.182952   -2.011236    5.889331
 106 H     1.0000    0     1.008    3.598417    6.104571    4.343158
 107 H     1.0000    0     1.008    0.632491    7.499567    1.660124
 108 H     1.0000    0     1.008   -1.382713   11.276185   -0.071999
 109 H     1.0000    0     1.008    5.212432   12.794580   -4.463533
 110 H     1.0000    0     1.008    7.299256    9.109614   -2.605365
 111 H     1.0000    0     1.008    7.286595    4.771936   -2.698340
 112 H     1.0000    0     1.008    7.497866    1.163504   -4.848848
 113 H     1.0000    0     1.008    9.987581   -1.679589   -7.502024
 114 H     1.0000    0     1.008   14.489664   -3.722005   -1.130434
 115 H     1.0000    0     1.008   12.102562   -0.750788    1.504411
 116 H     1.0000    0     1.008    8.254702   -0.407236    3.410389
 117 C     6.0000    0    12.011  -10.079610   -5.105095   -8.572554
 118 C     6.0000    0    12.011   -8.384148   -6.252726  -10.227576
 119 C     6.0000    0    12.011   -5.947724   -5.331295  -10.466626
 120 C     6.0000    0    12.011   -9.289705   -3.000696   -7.199857
 121 C     6.0000    0    12.011   -6.840431   -2.136335   -7.398278
 122 C     6.0000    0    12.011   -5.120402   -3.280754   -9.032891
 123 C     6.0000    0    12.011   -2.510501   -2.319261   -9.165361
 124 C     6.0000    0    12.011   -0.454290   -3.962189   -9.148731
 125 C     6.0000    0    12.011    2.000275   -3.032632   -9.075221
 126 C     6.0000    0    12.011    4.176673   -4.762488   -8.752834
 127 C     6.0000    0    12.011    5.424648   -4.783842   -6.434895
 128 C     6.0000    0    12.011    7.468954   -6.347401   -6.026148
 129 C     6.0000    0    12.011    8.307047   -7.972188   -7.923244
 130 C     6.0000    0    12.011    7.074568   -7.942330  -10.259134
 131 C     6.0000    0    12.011    5.037254   -6.354582  -10.661268
 132 C     6.0000    0    12.011    2.405999   -0.435960   -9.124354
 133 C     6.0000    0    12.011    0.378512    1.231535   -9.196352
 134 C     6.0000    0    12.011    0.795953    3.997716   -9.187848
 135 C     6.0000    0    12.011    1.826798    5.246069  -11.262957
 136 C     6.0000    0    12.011    2.193594    7.832159  -11.223839
 137 C     6.0000    0    12.011    1.541261    9.244351   -9.088449
 138 C     6.0000    0    12.011    0.476022    7.998833   -7.025057
 139 C     6.0000    0    12.011    0.122643    5.415577   -7.075135
 140 C     6.0000    0    12.011   -2.066227    0.275522   -9.172542
 141 H     1.0000    0     1.008   -9.004923   -7.824033  -11.372372
 142 H     1.0000    0     1.008   -4.679340   -6.197546  -11.809843
 143 H     1.0000    0     1.008  -10.594183   -2.098163   -5.920701
 144 H     1.0000    0     1.008   -6.242899   -0.563705   -6.243466
 145 H     1.0000    0     1.008   -0.762693   -5.979660   -9.106401
 146 H     1.0000    0     1.008    4.777228   -3.563457   -4.931996
 147 H     1.0000    0     1.008    8.394730   -6.363653   -4.214656
 148 H     1.0000    0     1.008    7.750901   -9.112259  -11.788112
 149 H     1.0000    0     1.008    4.119414   -6.337386  -12.482586
 150 H     1.0000    0     1.008    4.314056    0.288561   -9.094118
 151 H     1.0000    0     1.008    2.322473    4.184421  -12.932530
 152 H     1.0000    0     1.008    2.925296    8.765117  -12.884342
 153 H     1.0000    0     1.008   -0.015874    9.062749   -5.361531
 154 H     1.0000    0     1.008   -0.674065    4.480352   -5.444679
 155 H     1.0000    0     1.008   -3.641313    1.571685   -9.228667
 156 Zn   30.0000    0    65.380   -0.848487    0.640617   15.833448
 157 C     6.0000    0    12.011   -4.932563    2.145217   19.864990
 158 N     7.0000    0    14.007   -4.270970    0.715828   17.919706
 159 C     6.0000    0    12.011   -5.789365   -1.209614   17.260759
 160 C     6.0000    0    12.011   -5.059931   -2.673018   15.064330
 161 N     7.0000    0    14.007   -3.053797   -2.174130   13.815221
 162 C     6.0000    0    12.011   -8.011116   -1.753099   18.571284
 163 C     6.0000    0    12.011   -8.680835   -0.260404   20.621258
 164 C     6.0000    0    12.011   -7.115197    1.737792   21.272080
 165 H     1.0000    0     1.008   -3.675139    3.683643   20.337611
 166 H     1.0000    0     1.008   -6.368755   -4.150783   14.474735
 167 H     1.0000    0     1.008   -9.184447   -3.319304   17.998886
 168 H     1.0000    0     1.008  -10.381399   -0.644208   21.679127
 169 H     1.0000    0     1.008   -7.564763    2.957232   22.841498
 170 C     6.0000    0    12.011   -0.197476   -2.956854   20.572882
 171 N     7.0000    0    14.007    0.660459   -2.163736   18.357745
 172 C     6.0000    0    12.011    2.874462   -3.085545   17.528722
 173 C     6.0000    0    12.011    3.793625   -2.145028   15.129336
 174 N     7.0000    0    14.007    2.682277   -0.360938   13.945045
 175 C     6.0000    0    12.011    4.274372   -4.840345   18.910867
 176 C     6.0000    0    12.011    3.363901   -5.657462   21.230128
 177 C     6.0000    0    12.011    1.078845   -4.693891   22.076159
 178 H     1.0000    0     1.008   -1.974764   -2.172618   21.202160
 179 H     1.0000    0     1.008    5.529150   -2.995216   14.414264
 180 H     1.0000    0     1.008    6.051281   -5.531606   18.188614
 181 H     1.0000    0     1.008    4.411944   -7.002002   22.349035
 182 H     1.0000    0     1.008    0.296309   -5.264777   23.868942
 183 C     6.0000    0    12.011    2.012369    3.676840   20.044514
 184 N     7.0000    0    14.007    0.791795    3.695170   17.859613
 185 C     6.0000    0    12.011    0.300844    5.934496   16.768674
 186 C     6.0000    0    12.011   -1.038216    5.879316   14.379304
 187 N     7.0000    0    14.007   -1.902765    3.823294   13.461842
 188 C     6.0000    0    12.011    1.027444    8.218986   17.863014
 189 C     6.0000    0    12.011    2.294505    8.185538   20.159976
 190 C     6.0000    0    12.011    2.802086    5.866088   21.267734
 191 H     1.0000    0     1.008    2.381055    1.846451   20.870513
 192 H     1.0000    0     1.008   -1.302021    7.685894   13.423103
 193 H     1.0000    0     1.008    0.591484    9.984557   16.940639
 194 H     1.0000    0     1.008    2.868604    9.923141   21.059486
 195 H     1.0000    0     1.008    3.786066    5.744956   23.048045
 196 Zn   30.0000    0    65.380  -13.886086   -9.454678   -6.428092
 197 C     6.0000    0    12.011  -15.685105  -11.899416  -11.510889
 198 N     7.0000    0    14.007  -13.861519  -11.556242   -9.829977
 199 C     6.0000    0    12.011  -11.654697  -12.760565  -10.176931
 200 C     6.0000    0    12.011   -9.713570  -12.362399   -8.284181
 201 N     7.0000    0    14.007  -10.153876  -11.153920   -6.245167
 202 C     6.0000    0    12.011  -11.230831  -14.345100  -12.239189
 203 C     6.0000    0    12.011  -13.154006  -14.705660  -13.986619
 204 C     6.0000    0    12.011  -15.425456  -13.453716  -13.615099
 205 H     1.0000    0     1.008  -17.435936  -10.902208  -11.175840
 206 H     1.0000    0     1.008   -7.867875  -13.198225   -8.662505
 207 H     1.0000    0     1.008   -9.437859  -15.292042  -12.454996
 208 H     1.0000    0     1.008  -12.886609  -15.932470  -15.593453
 209 H     1.0000    0     1.008  -16.973142  -13.674058  -14.922411
 210 C     6.0000    0    12.011  -16.589717  -14.523490   -5.017790
 211 N     7.0000    0    14.007  -15.546399  -12.376194   -4.263978
 212 C     6.0000    0    12.011  -15.578146  -11.819292   -1.788437
 213 C     6.0000    0    12.011  -14.449224   -9.436914   -1.037649
 214 N     7.0000    0    14.007  -13.704294   -7.817041   -2.658656
 215 C     6.0000    0    12.011  -16.664928  -13.424614   -0.003968
 216 C     6.0000    0    12.011  -17.765126  -15.666397   -0.808047
 217 C     6.0000    0    12.011  -17.722986  -16.226889   -3.367114
 218 H     1.0000    0     1.008  -16.530946  -14.913719   -7.022033
 219 H     1.0000    0     1.008  -14.322612   -9.070685    0.987004
 220 H     1.0000    0     1.008  -16.666629  -12.914388    1.970228
 221 H     1.0000    0     1.008  -18.633834  -16.939505    0.527234
 222 H     1.0000    0     1.008  -18.552764  -17.946162   -4.080297
 223 C     6.0000    0    12.011  -19.698505   -8.444808   -6.891831
 224 N     7.0000    0    14.007  -17.353355   -7.636950   -7.232171
 225 C     6.0000    0    12.011  -16.999031   -5.380050   -8.336716
 226 C     6.0000    0    12.011  -14.405571   -4.572003   -8.702945
 227 N     7.0000    0    14.007  -12.543435   -6.038053   -8.265473
 228 C     6.0000    0    12.011  -19.011968   -3.873750   -9.125488
 229 C     6.0000    0    12.011  -21.464265   -4.736976   -8.774376
 230 C     6.0000    0    12.011  -21.812920   -7.068899   -7.631281
 231 H     1.0000    0     1.008  -19.915446  -10.267827   -5.996290
 232 H     1.0000    0     1.008  -14.125514   -2.662435   -9.426710
 233 H     1.0000    0     1.008  -18.660290   -2.073030  -10.015549
 234 H     1.0000    0     1.008  -23.059761   -3.619959   -9.378900
 235 H     1.0000    0     1.008  -23.682426   -7.816663   -7.317775
 236 Zn   30.0000    0    65.380   13.911786   -8.853745   -5.516489
 237 C     6.0000    0    12.011   19.693403   -8.552900   -4.236955
 238 N     7.0000    0    14.007   17.330867   -8.663638   -3.417948
 239 C     6.0000    0    12.011   16.927033   -8.879823   -0.920675
 240 C     6.0000    0    12.011   14.317132   -8.993018   -0.095431
 241 N     7.0000    0    14.007   12.496570   -9.115094   -1.672219
 242 C     6.0000    0    12.011   18.904631   -8.995285    0.816929
 243 C     6.0000    0    12.011   21.376015   -8.891917   -0.056692
 244 C     6.0000    0    12.011   21.775881   -8.659292   -2.635601
 245 H     1.0000    0     1.008   19.954374   -8.375644   -6.254238
 246 H     1.0000    0     1.008   13.988320   -9.003600    1.939048
 247 H     1.0000    0     1.008   18.511946   -9.181045    2.809267
 248 H     1.0000    0     1.008   22.945811   -8.990750    1.241172
 249 H     1.0000    0     1.008   23.661639   -8.565562   -3.402263
 250 C     6.0000    0    12.011   15.891274  -14.443555   -5.312209
 251 N     7.0000    0    14.007   14.112664  -12.828217   -6.013864
 252 C     6.0000    0    12.011   12.250717  -13.660263   -7.526212
 253 C     6.0000    0    12.011   10.282756  -11.870882   -8.176089
 254 N     7.0000    0    14.007   10.321306   -9.593384   -7.372578
 255 C     6.0000    0    12.011   12.153207  -16.149789   -8.388305
 256 C     6.0000    0    12.011   14.036130  -17.825787   -7.663406
 257 C     6.0000    0    12.011   15.936060  -16.956702   -6.081706
 258 H     1.0000    0     1.008   17.354300  -13.716199   -4.086722
 259 H     1.0000    0     1.008    8.716362  -12.602206   -9.296886
 260 H     1.0000    0     1.008   10.636324  -16.755446   -9.608879
 261 H     1.0000    0     1.008   14.017611  -19.758976   -8.312149
 262 H     1.0000    0     1.008   17.431023  -18.192582   -5.457151
 263 C     6.0000    0    12.011   16.973331   -9.923519  -10.545239
 264 N     7.0000    0    14.007   15.782615   -8.280591   -9.077111
 265 C     6.0000    0    12.011   15.807937   -5.833585   -9.748152
 266 C     6.0000    0    12.011   14.539175   -4.072738   -8.081603
 267 N     7.0000    0    14.007   13.632106   -4.754173   -5.952637
 268 C     6.0000    0    12.011   17.027944   -4.983964  -11.924928
 269 C     6.0000    0    12.011   18.274030   -6.716276  -13.448614
 270 C     6.0000    0    12.011   18.243605   -9.239060  -12.741667
 271 H     1.0000    0     1.008   16.936482  -11.877307   -9.952999
 272 H     1.0000    0     1.008   14.456027   -2.111769   -8.708803
 273 H     1.0000    0     1.008   17.016795   -3.000696  -12.397926
 274 H     1.0000    0     1.008   19.247617   -6.113453  -15.135950
 275 H     1.0000    0     1.008   19.189791  -10.655977  -13.859629
 276 Zn   30.0000    0    65.380   -0.451456   14.878759   -7.513551
 277 C     6.0000    0    12.011   -0.985303   17.370741  -12.930640
 278 N     7.0000    0    14.007   -1.854766   15.756537  -11.224595
 279 C     6.0000    0    12.011   -4.029841   14.545789  -11.718570
 280 C     6.0000    0    12.011   -4.958830   12.826894   -9.803521
 281 N     7.0000    0    14.007   -3.901718   12.628095   -7.643753
 282 C     6.0000    0    12.011   -5.378916   14.928647  -13.950714
 283 C     6.0000    0    12.011   -4.457864   16.626944  -15.723466
 284 C     6.0000    0    12.011   -2.212113   17.871140  -15.200390
 285 H     1.0000    0     1.008    0.760426   18.329399  -12.481074
 286 H     1.0000    0     1.008   -6.651080   11.751262  -10.277276
 287 H     1.0000    0     1.008   -7.125968   13.928982  -14.276503
 288 H     1.0000    0     1.008   -5.467356   16.974087  -17.460881
 289 H     1.0000    0     1.008   -1.421830   19.211901  -16.515639
 290 C     6.0000    0    12.011   -3.568937   19.880297   -6.864430
 291 N     7.0000    0    14.007   -2.292427   18.011358   -5.796357
 292 C     6.0000    0    12.011   -1.901442   18.093561   -3.288879
 293 C     6.0000    0    12.011   -0.489628   16.018264   -2.189437
 294 N     7.0000    0    14.007    0.520997   14.314486   -3.563268
 295 C     6.0000    0    12.011   -2.789236   20.073049   -1.793539
 296 C     6.0000    0    12.011   -4.115257   22.031750   -2.928509
 297 C     6.0000    0    12.011   -4.517012   21.928193   -5.515355
 298 H     1.0000    0     1.008   -3.852774   19.757087   -8.882847
 299 H     1.0000    0     1.008   -0.300466   16.008626   -0.137194
 300 H     1.0000    0     1.008   -2.431133   20.084954    0.213917
 301 H     1.0000    0     1.008   -4.814077   23.596065   -1.822641
 302 H     1.0000    0     1.008   -5.540110   23.403313   -6.479493
 303 C     6.0000    0    12.011    3.446483   19.320371   -7.950267
 304 N     7.0000    0    14.007    2.915281   16.897931   -8.289662
 305 C     6.0000    0    12.011    4.572570   15.461928   -9.568439
 306 C     6.0000    0    12.011    3.979952   12.800816   -9.822796
 307 N     7.0000    0    14.007    1.955489   11.849906   -8.909492
 308 C     6.0000    0    12.011    6.808305   16.448743  -10.557900
 309 C     6.0000    0    12.011    7.342153   18.993637  -10.213781
 310 C     6.0000    0    12.011    5.631384   20.455530   -8.870752
 311 H     1.0000    0     1.008    2.077187   20.417735   -6.905248
 312 H     1.0000    0     1.008    5.406506   11.635611  -10.745739
 313 H     1.0000    0     1.008    8.096343   15.246499  -11.584210
 314 H     1.0000    0     1.008    9.049898   19.812078  -10.970238
 315 H     1.0000    0     1.008    5.971724   22.437852   -8.544208

--------------------------------
INTERNAL COORDINATES (ANGSTROEM)
--------------------------------
 C      0   0   0     0.000000000000     0.00000000     0.00000000
 C      1   0   0     1.397647756053     0.00000000     0.00000000
 C      2   1   0     1.383079784394   120.43740046     0.00000000
 C      1   2   3     1.394319030925   118.79209912   359.14767449
 C      4   1   2     1.379263680374   120.41242300     1.30044407
 C      3   2   1     1.391927472967   120.74883460   359.95862278
 C      6   3   2     1.481125204026   122.69973365   179.70972123
 C      7   6   3     1.389391409935   119.35471765   249.03226492
 C      8   7   6     1.394239868172   121.12493585   184.05526421
 C      9   8   7     1.473026768256   120.59381135   179.64951485
 C     10   9   8     1.395058228175   120.53237127   327.20850757
 C     11  10   9     1.379126930344   121.37222646   179.76215853
 C     12  11  10     1.395751095289   120.42254373     2.65650435
 C     13  12  11     1.394402786142   118.71077670   357.39534275
 C     14  13  12     1.380972371194   120.36813573     0.39362299
 C      9   8   7     1.392876193350   118.38816914     1.44580102
 C     16   9   8     1.392460660127   121.32347644   358.47389166
 C     17  16   9     1.473563493712   120.29446183   176.49445923
 C     18  17  16     1.394103690548   119.69745691   318.50538049
 C     19  18  17     1.378734949147   121.04021781   182.05687489
 C     20  19  18     1.394102643280   120.56515165     2.19838838
 C     21  20  19     1.393297670995   118.82320044   356.78068959
 C     22  21  20     1.383725052169   120.23864312     1.49643733
 C      7   6   3     1.388957807135   120.98432610    72.81651270
 H      2   1   3     1.079753513539   120.08806580   177.68375310
 H      3   2   1     1.079254418569   119.57696545   179.17342468
 H      4   1   2     1.076888555051   119.43286290   179.42528568
 H      5   4   1     1.080406224529   119.45388682   178.84607194
 H      8   7   6     1.079418037648   118.69610852     6.21381958
 H     11  10   9     1.079234738136   119.77998205   358.82900261
 H     12  11  10     1.079182472986   120.11361924   179.38528790
 H     14  13  12     1.079076924969   119.32120705   182.68411716
 H     15  14  13     1.078776552396   118.96094269   183.11799247
 H     16   9   8     1.079363432770   119.50504806   178.42058637
 H     19  18  17     1.079972897808   119.70041231     1.13087847
 H     20  19  18     1.078506787183   120.10465569   179.43814345
 H     22  21  20     1.079962397494   119.48994998   183.63740461
 H     23  22  21     1.079759551937   119.28267818   182.21794016
 H     24   7   6     1.080117924118   119.47060838   356.79671929
 C     27   4   1     2.476440096186   144.82125963   314.10359213
 C     40  27   4     1.394607593555    86.86027161   334.44881093
 C     41  40  27     1.380603791824   120.37234289   276.95145429
 C     40  27   4     1.395737905196    85.90299822   215.34020006
 C     43  40  27     1.379616664150   120.41023950    81.67826342
 C     44  43  40     1.394699369040   121.34029063     2.30309900
 C     45  44  43     1.473510183202   120.74423434   180.37884292
 C     46  45  44     1.392703435768   120.53685662   143.34194315
 C     47  46  45     1.392131746639   121.05284258   180.43887060
 C     48  47  46     1.474377160024   120.23949447   177.33434022
 C     49  48  47     1.393853227567   119.67234061   317.31073146
 C     50  49  48     1.379092056391   121.03850206   181.76560674
 C     51  50  49     1.393695648268   120.54420406     2.02385071
 C     52  51  50     1.393291304789   118.86862872   357.09067068
 C     53  52  51     1.384202839182   120.22494480     1.32701947
 C     48  47  46     1.391482856524   119.17616901     0.39569070
 C     55  48  47     1.393750748879   120.97173281     1.19524068
 C     56  55  48     1.473235368161   121.01632958   174.77761498
 C     57  56  55     1.395518921405   120.38125666   325.53979451
 C     58  57  56     1.379080001305   121.33893563   184.35513899
 C     59  58  57     1.395797367099   120.40206759     1.99685950
 C     60  59  58     1.393568232990   118.68896364   355.98221565
 C     61  60  59     1.381401252352   120.41164508     2.24133071
 C     46  45  44     1.393267860104   120.77836368   325.07861725
 H     41  40  27     1.078951129570   119.31046266    99.21538963
 H     42  41  40     1.078903605518   119.02364439   182.92648949
 H     43  40  27     1.079402802479   119.39483815   264.84918398
 H     44  43  40     1.079448576821   118.92135553   183.29485120
 H     47  46  45     1.079415031394   119.60797371     0.49238555
 H     50  49  48     1.080081455262   119.70014941     0.92809181
 H     51  50  49     1.078503486318   120.14569095   179.45304610
 H     53  52  51     1.079828157625   119.55257356   183.37916804
 H     54  53  52     1.079790683420   119.28012203   182.16335458
 H     55  48  47     1.079458429028   119.25562822   180.96845911
 H     58  57  56     1.079400250139   119.76505786     3.02234158
 H     59  58  57     1.080102184981   120.08452508   178.33497934
 H     61  60  59     1.079807556929   119.21316821   184.55214891
 H     62  61  60     1.079571002760   119.15382431   182.76695722
 H     63  46  45     1.079064678321   119.36942235   358.74988191
 C     27   4   1     2.766710629972   106.54358652    88.36090020
 C     79  27   4     1.393556062740   100.02299199   165.37738096
 C     80  79  27     1.381239164663   120.42666645   276.54912361
 C     79  27   4     1.395723045593    81.23645719    47.62096146
 C     82  79  27     1.379389422897   120.39816678    92.80193242
 C     83  82  79     1.395077263093   121.36933465     2.15315087
 C     84  83  82     1.473697750558   120.70069679   183.33183042
 C     85  84  83     1.392850135514   120.13568698   142.47802336
 C     86  85  84     1.393029281817   121.30110334   182.82901496
 C     87  86  85     1.473655278551   120.50367380   177.97179283
 C     88  87  86     1.394883690492   120.46339212   325.29565106
 C     89  88  87     1.379512312377   121.35593090   180.39680373
 C     90  89  88     1.395450644057   120.37092300     2.46424821
 C     91  90  89     1.394220674786   118.75678571   357.40375061
 C     92  91  90     1.380791417992   120.37686878     0.54799584
 C     87  86  85     1.392721738180   118.76984658   359.65021214
 C     94  87  86     1.393552901759   121.20266942     0.21624967
 C     95  94  87     1.473746745543   120.86898434   177.52122132
 C     96  95  94     1.395552288522   120.63269821   326.09428201
 C     97  96  95     1.379394145993   121.27089853   183.01522689
 C     98  97  96     1.395767939165   120.47837250     2.34740146
 C     99  98  97     1.393228032305   118.65953113   355.89015891
 C    100  99  98     1.381601603213   120.39011323     2.04154440
 C     85  84  83     1.392972113863   121.11674854   325.01182449
 H     80  79  27     1.079660733749   119.18951199    99.01200211
 H     81  80  79     1.079563842485   119.15992673   182.94587209
 H     82  79  27     1.080172629722   119.40923272   276.28442261
 H     83  82  79     1.079295251541   118.93826948   183.49606408
 H     86  85  84     1.078890898099   119.26360558     3.02156986
 H     89  88  87     1.079376880427   119.72853502   359.30486166
 H     90  89  88     1.079454732724   120.16028620   179.15708458
 H     92  91  90     1.078839714694   119.33521868   182.91985677
 H     93  92  91     1.078879367677   118.99450044   183.02232417
 H     94  87  86     1.079003827611   119.21688280   180.30419749
 H     97  96  95     1.079679822910   119.76173430     1.77058098
 H     98  97  96     1.080175555176   120.07687181   178.83070924
 H    100  99  98     1.079789289630   119.21991193   184.50529722
 H    101 100  99     1.079567163265   119.08424082   183.02844829
 H    102  85  84     1.078976862588   119.38439360   357.01683114
 C     36  20  19     3.127222592014   109.87373386   242.76298168
 C    118  36  20     1.393128411167    52.16049625   188.99295395
 C    119 118  36     1.384214759349   120.24852206   279.83404665
 C    118  36  20     1.393730935296   100.91976043    70.77893937
 C    121 118  36     1.378446578580   120.49252539    49.92115744
 C    122 121 118     1.394073312276   121.13254981     2.24875385
 C    123 122 121     1.473508961629   119.43778536   180.76670415
 C    124 123 122     1.392801281590   121.09097852   134.58491743
 C    125 124 123     1.389467534705   120.63075689   185.05346550
 C    126 125 124     1.481038287824   120.75412658   172.72707097
 C    127 126 125     1.393127205247   118.36342604   252.92846737
 C    128 127 126     1.379009677268   120.98698064   180.24071820
 C    129 128 127     1.394189190892   120.43913886   359.05099456
 C    130 129 128     1.397697281245   118.77697890     1.46150618
 C    131 130 129     1.383300216873   120.43679375   359.03400330
 C    126 125 124     1.391015061026   119.56952701   357.32792861
 C    133 126 125     1.389674702943   120.57032140     1.26094921
 C    134 133 126     1.480380863157   120.83512082   178.54289633
 C    135 134 133     1.392762083057   121.67121954    70.10153404
 C    136 135 134     1.382351456758   120.84687601   179.74591500
 C    137 136 135     1.398041605246   120.43831780     0.21522331
 C    138 137 136     1.394423217678   118.69040091   358.88910773
 C    139 138 137     1.379985597751   120.52828262     1.30915169
 C    134 133 126     1.389155592437   119.17701612     1.15697337
 H    119 118  36     1.079952841563   119.49745125   102.04271898
 H    120 119 118     1.079757676518   119.31492175   182.32883887
 H    121 118  36     1.078336431732   119.27866571   232.38317333
 H    122 121 118     1.079806691033   119.20670484   183.20317159
 H    125 124 123     1.080234122772   119.93471753     2.24072666
 H    128 127 126     1.080247420733   119.53960931     0.50053956
 H    129 128 127     1.076563946080   120.09535013   180.98091416
 H    131 130 129     1.079824073634   120.10046767   176.79006124
 H    132 131 130     1.079304285176   119.55232244   179.27560872
 H    133 126 125     1.080160011295   119.64560229   180.86656521
 H    136 135 134     1.079348312641   119.58247912     0.57382378
 H    137 136 135     1.079711637429   119.39563448   182.46731266
 H    139 138 137     1.076871942248   119.38724826   179.34161737
 H    140 139 138     1.080322363927   119.42866003   178.88673272
 H    141 134 133     1.079844039665   119.16078504   180.00526613
 Zn    40  27   4     3.248046326640    68.56155607    78.55686228
 C    157  40  27     3.139445084724    98.39487928   215.76030105
 N    158 157  40     1.324528342468    31.24900633    80.58516941
 C    159 158 157     1.343637283645   118.46885806   171.08432339
 C    160 159 158     1.449010921284   117.00940002   177.64732686
 N    161 160 159     1.278128146940   121.71568879     0.52263170
 C    160 159 158     1.394964694894   122.09540505   359.41676715
 C    163 160 159     1.387923776726   119.10695817     0.03355663
 C    164 163 160     1.386765434383   118.39253179     0.59554259
 H    158 157  40     1.080771011824    85.66768399   268.88508247
 H    161 160 159     1.090212254563   116.33812449   183.87291409
 H    163 160 159     1.078969258135   120.25227151   180.30028149
 H    164 163 160     1.079094833645   120.75011355   180.45043082
 H    165 164 163     1.078303644620   121.04917929   179.55424427
 C    157  40  27     3.167462381781   164.81998697   264.78427322
 N    171 157  40     1.325261079939    31.41323176   135.53153502
 C    172 171 157     1.342778123891   118.21833656   175.87498450
 C    173 172 171     1.447904810407   117.04798440   181.31892523
 N    174 173 172     1.276690765221   121.99918902     6.00686018
 C    173 172 171     1.395001275985   122.26709551     0.27060240
 C    176 173 172     1.387575688026   119.12953349   359.62643975
 C    177 176 173     1.386577780004   118.28096010     0.24107007
 H    171 157  40     1.080580515279    85.32648797   318.75978474
 H    174 173 172     1.090438045008   116.45010898   183.87840113
 H    176 173 172     1.078911752647   120.18362197   180.32948790
 H    177 176 173     1.079071739969   120.82014241   180.49819777
 H    178 177 176     1.078320411566   121.06036331   180.24258855
 C    166 158 157     3.013695913658   127.01657132   328.28452904
 N    184 166 158     1.324416603641    63.76076543    71.21887673
 C    185 184 166     1.343501518421   118.41716676    92.78581873
 C    186 185 184     1.449715130638   116.84149107   180.00540998
 N    187 186 185     1.276229015498   121.61302013     5.90032987
 C    186 185 184     1.394502158478   122.19952528   359.85195225
 C    189 186 185     1.388280875760   119.05867205   359.81386643
 C    190 189 186     1.386465708195   118.36156780     0.42595790
 H    184 166 158     1.080419538883    99.24105792   316.02861400
 H    187 186 185     1.090623748137   116.71526497   184.74901193
 H    189 186 185     1.079064682955   120.25240111   180.40513705
 H    190 189 186     1.079050828275   120.75314222   180.44742350
 H    191 190 189     1.078327274068   121.03490665   179.82220970
 Zn    21  20  19     3.261278959243   126.02916970   140.56187015
 C    197  21  20     3.132802224846   117.27770367    83.12545759
 N    198 197  21     1.324920303264    31.31353601   357.47100693
 C    199 198 197     1.342988119828   118.45778448   176.76837223
 C    200 199 198     1.450081683906   116.90992141   180.68390932
 N    201 200 199     1.275731260885   121.84768860     7.41759203
 C    200 199 198     1.394391777801   122.15606729     0.08350279
 C    203 200 199     1.388231976292   119.08043282   359.60857926
 C    204 203 200     1.386492628902   118.38665264     0.42505406
 H    198 197  21     1.080881505994    85.29860603   180.39416397
 H    201 200 199     1.090711795114   116.65543878   185.60117147
 H    203 200 199     1.079057130091   120.23333935   180.33591806
 H    204 203 200     1.079116759206   120.75824480   180.49036731
 H    205 204 203     1.078398720326   121.04927248   179.95787045
 C    197  21  20     3.130271469058    99.79362261   159.24612998
 N    211 197  21     1.324806895362    31.38917171    72.67173282
 C    212 211 197     1.342844119770   118.47367305   177.02923135
 C    213 212 211     1.450551115956   116.92222226   180.82129428
 N    214 213 212     1.275149528487   121.82438931     7.35456601
 C    213 212 211     1.394307265275   122.15021286     0.10248226
 C    216 213 212     1.388277630735   119.07944059   359.60715574
 C    217 216 213     1.386479891668   118.38629916     0.40403977
 H    211 197  21     1.080963375883    85.21726164   255.35694496
 H    214 213 212     1.090846185308   116.66136287   185.46214438
 H    216 213 212     1.079026830065   120.23842353   180.32623586
 H    217 216 213     1.079110439204   120.75973227   180.48540668
 H    218 217 216     1.078413468944   121.04675644   179.97119280
 C    206 198 197     2.874692409633   135.00873990   344.60555359
 N    224 206 198     1.324867261276    69.42899220    50.70723044
 C    225 224 206     1.342813832964   118.48643668   101.81550190
 C    226 225 224     1.450476459650   116.90223363   180.67160821
 N    227 226 225     1.275331741156   121.83583030     7.67863878
 C    226 225 224     1.394360860753   122.14511591     0.09735154
 C    229 226 225     1.388241034547   119.07419305   359.59129430
 C    230 229 226     1.386614676109   118.39837191     0.42370291
 H    224 206 198     1.080928462018    89.21236735   291.84473460
 H    227 226 225     1.090762343501   116.65242023   185.90085955
 H    229 226 225     1.079116592403   120.24562199   180.30202728
 H    230 229 226     1.079156017451   120.75949625   180.49156335
 H    231 230 229     1.078339366804   121.04768488   179.95713842
 Zn    13  12  11     3.246806155286   129.76121435   138.38168971
 C    237  13  12     3.137570604783   117.17342845    76.15680881
 N    238 237  13     1.324488414445    31.56420285   359.40235741
 C    239 238 237     1.343546538085   118.40844736   174.38770310
 C    240 239 238     1.449735186163   116.82898523   179.94199372
 N    241 240 239     1.276141089378   121.62290859     6.22787056
 C    240 239 238     1.394408731327   122.20554322   359.86205106
 C    243 240 239     1.388183784663   119.05896544   359.79271893
 C    244 243 240     1.386482693725   118.36394350     0.43718304
 H    238 237  13     1.080475034418    85.17149092   184.54307962
 H    241 240 239     1.090584668882   116.71615492   185.14027452
 H    243 240 239     1.079070071867   120.24829606   180.39523643
 H    244 243 240     1.079116314398   120.75435934   180.44974872
 H    245 244 243     1.078358502540   121.03906804   179.80406834
 C    237  13  12     3.139857617791    98.84827940   152.02003401
 N    251 237  13     1.324539229317    31.27441742    80.66001115
 C    252 251 237     1.343562529248   118.46318673   171.11364480
 C    253 252 251     1.448930909326   117.01975237   177.62510870
 N    254 253 252     1.278169879163   121.72073375     0.69757180
 C    253 252 251     1.395107078328   122.09743226   359.40550149
 C    256 253 252     1.388003432993   119.10823399     0.02570562
 C    257 256 253     1.386688923299   118.38378286     0.61567093
 H    251 237  13     1.080780227428    85.64891821   268.95047000
 H    254 253 252     1.090234754537   116.33337671   184.05261746
 H    256 253 252     1.078996918439   120.24852181   180.30325295
 H    257 256 253     1.079110712578   120.75109155   180.46249895
 H    258 257 256     1.078325303422   121.04867084   179.54122901
 C    246 238 237     2.883662523597   133.10993615   335.17938116
 N    264 246 238     1.325313540261    67.17952013    61.80514269
 C    265 264 246     1.342773837994   118.21884913    97.94407490
 C    266 265 264     1.448025141356   117.05632732   181.30089462
 N    267 266 265     1.276581340926   122.00899546     6.27411975
 C    266 265 264     1.394924058865   122.26380847     0.26535444
 C    269 266 265     1.387539887715   119.13486552   359.60966184
 C    270 269 266     1.386519029801   118.28195647     0.26686282
 H    264 246 238     1.080531822761    93.05373786   304.06486404
 H    267 266 265     1.090373743264   116.47045220   184.15175901
 H    269 266 265     1.078950948839   120.16891756   180.34138330
 H    270 269 266     1.079102613286   120.82495686   180.50777753
 H    271 270 269     1.078374281036   121.06825467   180.21685768
 Zn    91  90  89     3.243228417796   129.52001800   137.98968958
 C    277  91  90     3.167991714004   163.81615432   202.67630854
 N    278 277  91     1.325291473601    31.37961195   136.59628128
 C    279 278 277     1.342991976893   118.19258139   175.16772895
 C    280 279 278     1.447764580310   117.03305743   181.05253315
 N    281 280 279     1.276799048402   121.97608614     6.24775755
 C    280 279 278     1.394967171657   122.28506482     0.18275341
 C    283 280 279     1.387534525697   119.12953509   359.65338452
 C    284 283 280     1.386507612673   118.27295613     0.29864702
 H    278 277  91     1.080442566729    85.40917589   320.54252898
 H    281 280 279     1.090302425935   116.48332911   184.28291994
 H    283 280 279     1.079010199210   120.17034351   180.35178991
 H    284 283 280     1.079079093487   120.82451513   180.50005447
 H    285 284 283     1.078284512548   121.06544918   180.16029000
 C    277  91  90     3.137598321965   117.21361607    78.22136733
 N    291 277  91     1.324338434842    31.63469590   358.91125678
 C    292 291 277     1.343638146973   118.41327221   175.03164954
 C    293 292 291     1.450066512268   116.81053773   180.19032735
 N    294 293 292     1.275704746405   121.50617973     5.96075445
 C    293 292 291     1.394318464340   122.20066827   359.90195666
 C    296 293 292     1.388321108390   119.05625026   359.78829585
 C    297 296 293     1.386394247680   118.36886853     0.40005976
 H    291 277  91     1.080577942584    85.06483752   183.42616481
 H    294 293 292     1.090615431763   116.76645041   184.67791437
 H    296 293 292     1.079088147465   120.25862207   180.38341025
 H    297 296 293     1.079103294407   120.75189817   180.44108613
 H    298 297 296     1.078310882816   121.03462056   179.86056849
 C    286 278 277     2.836169790404   134.54450894   342.22923712
 N    304 286 278     1.324590872685    66.42702971    53.86818500
 C    305 304 286     1.343316753413   118.50352940    89.11714297
 C    306 305 304     1.448961476369   117.08243332   177.71684627
 N    307 306 305     1.278465024942   121.92222476     1.00757863
 C    306 305 304     1.395197265622   122.06883061   359.46545685
 C    309 306 305     1.388008483403   119.11064194     0.00000000
 C    310 309 306     1.386765856228   118.39920541     0.60970628
 H    304 286 278     1.080771321788   101.29659431   299.64677919
 H    307 306 305     1.090231227768   116.19393580   184.27009661
 H    309 306 305     1.079021135103   120.25613695   180.29925233
 H    310 309 306     1.079115095808   120.74247424   180.47267184
 H    311 310 309     1.078284215780   121.05008371   179.56427213

---------------------------
INTERNAL COORDINATES (A.U.)
---------------------------
 C      0   0   0     0.000000000000     0.00000000     0.00000000
 C      1   0   0     2.641171490630     0.00000000     0.00000000
 C      2   1   0     2.613642013868   120.43740046     0.00000000
 C      1   2   3     2.634881111763   118.79209912   359.14767449
 C      4   1   2     2.606430622372   120.41242300     1.30044407
 C      3   2   1     2.630361722189   120.74883460   359.95862278
 C      6   3   2     2.798921005657   122.69973365   179.70972123
 C      7   6   3     2.625569257599   119.35471765   249.03226492
 C      8   7   6     2.634731515839   121.12493585   184.05526421
 C      9   8   7     2.783617179940   120.59381135   179.64951485
 C     10   9   8     2.636277992125   120.53237127   327.20850757
 C     11  10   9     2.606172202266   121.37222646   179.76215853
 C     12  11  10     2.637587321217   120.42254373     2.65650435
 C     13  12  11     2.635039386185   118.71077670   357.39534275
 C     14  13  12     2.609659580068   120.36813573     0.39362299
 C      9   8   7     2.632154543889   118.38816914     1.44580102
 C     16   9   8     2.631369299898   121.32347644   358.47389166
 C     17  16   9     2.784631444059   120.29446183   176.49445923
 C     18  17  16     2.634474177425   119.69745691   318.50538049
 C     19  18  17     2.605431465154   121.04021781   182.05687489
 C     20  19  18     2.634472198375   120.56515165     2.19838838
 C     21  20  19     2.632951021211   118.82320044   356.78068959
 C     22  21  20     2.614861393245   120.23864312     1.49643733
 C      7   6   3     2.624749867056   120.98432610    72.81651270
 H      2   1   3     2.040438432728   120.08806580   177.68375310
 H      3   2   1     2.039495279919   119.57696545   179.17342468
 H      4   1   2     2.035024445801   119.43286290   179.42528568
 H      5   4   1     2.041671877743   119.45388682   178.84607194
 H      8   7   6     2.039804475170   118.69610852     6.21381958
 H     11  10   9     2.039458089292   119.77998205   358.82900261
 H     12  11  10     2.039359322471   120.11361924   179.38528790
 H     14  13  12     2.039159865625   119.32120705   182.68411716
 H     15  14  13     2.038592243725   118.96094269   183.11799247
 H     16   9   8     2.039701286904   119.50504806   178.42058637
 H     19  18  17     2.040853008915   119.70041231     1.13087847
 H     20  19  18     2.038082461351   120.10465569   179.43814345
 H     22  21  20     2.040833166196   119.48994998   183.63740461
 H     23  22  21     2.040449843647   119.28267818   182.21794016
 H     24   7   6     2.041127068922   119.47060838   356.79671929
 C     27   4   1     4.679793568854   144.82125963   314.10359213
 C     40  27   4     2.635426416105    86.86027161   334.44881093
 C     41  40  27     2.608963066001   120.37234289   276.95145429
 C     40  27   4     2.637562395553    85.90299822   215.34020006
 C     43  40  27     2.607097665037   120.41023950    81.67826342
 C     44  43  40     2.635599846638   121.34029063     2.30309900
 C     45  44  43     2.784530701796   120.74423434   180.37884292
 C     46  45  44     2.631828079373   120.53685662   143.34194315
 C     47  46  45     2.630747743485   121.05284258   180.43887060
 C     48  47  46     2.786169050554   120.23949447   177.33434022
 C     49  48  47     2.634000870985   119.67234061   317.31073146
 C     50  49  48     2.606106300045   121.03850206   181.76560674
 C     51  50  49     2.633703089264   120.54420406     2.02385071
 C     52  51  50     2.632938990825   118.86862872   357.09067068
 C     53  52  51     2.615764279851   120.22494480     1.32701947
 C     48  47  46     2.629521518877   119.17616901     0.39569070
 C     55  48  47     2.633807214328   120.97173281     1.19524068
 C     56  55  48     2.784011376631   121.01632958   174.77761498
 C     57  56  55     2.637148576161   120.38125666   325.53979451
 C     58  57  56     2.606083519235   121.33893563   184.35513899
 C     59  58  57     2.637674762265   120.40206759     1.99685950
 C     60  59  58     2.633462309284   118.68896364   355.98221565
 C     61  60  59     2.610470048001   120.41164508     2.24133071
 C     46  45  44     2.632894686792   120.77836368   325.07861725
 H     41  40  27     2.038922146772   119.31046266    99.21538963
 H     42  41  40     2.038832339329   119.02364439   182.92648949
 H     43  40  27     2.039775684873   119.39483815   264.84918398
 H     44  43  40     2.039862185842   118.92135553   183.29485120
 H     47  46  45     2.039798794173   119.60797371     0.49238555
 H     50  49  48     2.041058152772   119.70014941     0.92809181
 H     51  50  49     2.038076223620   120.14569095   179.45304610
 H     53  52  51     2.040579489608   119.55257356   183.37916804
 H     54  53  52     2.040508673623   119.28012203   182.16335458
 H     55  48  47     2.039880803816   119.25562822   180.96845911
 H     58  57  56     2.039770861649   119.76505786     3.02234158
 H     59  58  57     2.041097326263   120.08452508   178.33497934
 H     61  60  59     2.040540559934   119.21316821   184.55214891
 H     62  61  60     2.040093537339   119.15382431   182.76695722
 H     63  46  45     2.039136722815   119.36942235   358.74988191
 C     27   4   1     5.228325382456   106.54358652    88.36090020
 C     79  27   4     2.633439310845   100.02299199   165.37738096
 C     80  79  27     2.610163746660   120.42666645   276.54912361
 C     79  27   4     2.637534314974    81.23645719    47.62096146
 C     82  79  27     2.606668241303   120.39816678    92.80193242
 C     83  82  79     2.636313962907   121.36933465     2.15315087
 C     84  83  82     2.784885152731   120.70069679   183.33183042
 C     85  84  83     2.632105301716   120.13568698   142.47802336
 C     86  85  84     2.632443839167   121.30110334   182.82901496
 C     87  86  85     2.784804892268   120.50367380   177.97179283
 C     88  87  86     2.635948163703   120.46339212   325.29565106
 C     89  88  87     2.606900468765   121.35593090   180.39680373
 C     90  89  88     2.637019550672   120.37092300     2.46424821
 C     91  90  89     2.634695245596   118.75678571   357.40375061
 C     92  91  90     2.609317628073   120.37686878     0.54799584
 C     87  86  85     2.631862665920   118.76984658   359.65021214
 C     94  87  86     2.633433337455   121.20266942     0.21624967
 C     95  94  87     2.784977739835   120.86898434   177.52122132
 C     96  95  94     2.637211630874   120.63269821   326.09428201
 C     97  96  95     2.606677166661   121.27089853   183.01522689
 C     98  97  96     2.637619151529   120.47837250     2.34740146
 C     99  98  97     2.632819423158   118.65953113   355.89015891
 C    100  99  98     2.610848656259   120.39011323     2.04154440
 C     85  84  83     2.632335807390   121.11674854   325.01182449
 H     80  79  27     2.040263104335   119.18951199    99.01200211
 H     81  80  79     2.040080006379   119.15992673   182.94587209
 H     82  79  27     2.041230447532   119.40923272   276.28442261
 H     83  82  79     2.039572443055   118.93826948   183.49606408
 H     86  85  84     2.038808325787   119.26360558     3.02156986
 H     89  88  87     2.039726699293   119.72853502   359.30486166
 H     90  89  88     2.039873818813   120.16028620   179.15708458
 H     92  91  90     2.038711603168   119.33521868   182.91985677
 H     93  92  91     2.038786536448   118.99450044   183.02232417
 H     94  87  86     2.039021731638   119.21688280   180.30419749
 H     97  96  95     2.040299177621   119.76173430     1.77058098
 H     98  97  96     2.041235975839   120.07687181   178.83070924
 H    100  99  98     2.040506039742   119.21991193   184.50529722
 H    101 100  99     2.040086281745   119.08424082   183.02844829
 H    102  85  84     2.038970775129   119.38439360   357.01683114
 C     36  20  19     5.909594258717   109.87373386   242.76298168
 C    118  36  20     2.632631166490    52.16049625   188.99295395
 C    119 118  36     2.615786805702   120.24852206   279.83404665
 C    118  36  20     2.633769772083   100.91976043    70.77893937
 C    121 118  36     2.604886523758   120.49252539    49.92115744
 C    122 121 118     2.634416770810   121.13254981     2.24875385
 C    123 122 121     2.784528393357   119.43778536   180.76670415
 C    124 123 122     2.632012981180   121.09097852   134.58491743
 C    125 124 123     2.625713112568   120.63075689   185.05346550
 C    126 125 124     2.798756757839   120.75412658   172.72707097
 C    127 126 125     2.632628887632   118.36342604   252.92846737
 C    128 127 126     2.605950626064   120.98698064   180.24071820
 C    129 128 127     2.634635749659   120.43913886   359.05099456
 C    130 129 128     2.641265079680   118.77697890     1.46150618
 C    131 130 129     2.614058570883   120.43679375   359.03400330
 C    126 125 124     2.628637513498   119.56952701   357.32792861
 C    133 126 125     2.626104603801   120.57032140     1.26094921
 C    134 133 126     2.797514405264   120.83512082   178.54289633
 C    135 134 133     2.631938906687   121.67121954    70.10153404
 C    136 135 134     2.612265674099   120.84687601   179.74591500
 C    137 136 135     2.641915757743   120.43831780     0.21522331
 C    138 137 136     2.635077996193   118.69040091   358.88910773
 C    139 138 137     2.607794848505   120.52828262     1.30915169
 C    134 133 126     2.625123627112   119.17701612     1.15697337
 H    119 118  36     2.040815108104   119.49745125   102.04271898
 H    120 119 118     2.040446299619   119.31492175   182.32883887
 H    121 118  36     2.037760536203   119.27866571   232.38317333
 H    122 121 118     2.040538923628   119.20670484   183.20317159
 H    125 124 123     2.041346652555   119.93471753     2.24072666
 H    128 127 126     2.041371782060   119.53960931     0.50053956
 H    129 128 127     2.034411023745   120.09535013   180.98091416
 H    131 130 129     2.040571771984   120.10046767   176.79006124
 H    132 131 130     2.039589514151   119.55232244   179.27560872
 H    133 126 125     2.041206602160   119.64560229   180.86656521
 H    136 135 134     2.039672714001   119.58247912     0.57382378
 H    137 136 135     2.040359298349   119.39563448   182.46731266
 H    139 138 137     2.034993052152   119.38724826   179.34161737
 H    140 139 138     2.041513404172   119.42866003   178.88673272
 H    141 134 133     2.040609502314   119.16078504   180.00526613
 Zn    40  27   4     6.137918027639    68.56155607    78.55686228
 C    157  40  27     5.932691422614    98.39487928   215.76030105
 N    158 157  40     2.502995823880    31.24900633    80.58516941
 C    159 158 157     2.539106489414   118.46885806   171.08432339
 C    160 159 158     2.738233806287   117.00940002   177.64732686
 N    161 160 159     2.415312161773   121.71568879     0.52263170
 C    160 159 158     2.636101239838   122.09540505   359.41676715
 C    163 160 159     2.622795832769   119.10695817     0.03355663
 C    164 163 160     2.620606882973   118.39253179     0.59554259
 H    158 157  40     2.042361225829    85.66768399   268.88508247
 H    161 160 159     2.060202588969   116.33812449   183.87291409
 H    163 160 159     2.038956404795   120.25227151   180.30028149
 H    164 163 160     2.039193708119   120.75011355   180.45043082
 H    165 164 163     2.037698577540   121.04917929   179.55424427
[...]
249 H      0.8081     1.0000     0.1919     0.9536     0.9536    -0.0000
250 C      6.0591     6.0000    -0.0591     3.8742     3.8742    -0.0000
251 N      6.9891     7.0000     0.0109     3.1646     3.1646     0.0000
252 C      5.8714     6.0000     0.1286     3.7552     3.7552     0.0000
253 C      6.1702     6.0000    -0.1702     3.9395     3.9395     0.0000
254 N      6.8799     7.0000     0.1201     3.1298     3.1298    -0.0000
255 C      6.1127     6.0000    -0.1127     3.7705     3.7705     0.0000
256 C      6.1133     6.0000    -0.1133     3.8537     3.8537     0.0000
257 C      6.0806     6.0000    -0.0806     3.7481     3.7481     0.0000
258 H      0.8441     1.0000     0.1559     0.9627     0.9627     0.0000
259 H      0.8493     1.0000     0.1507     0.9712     0.9712     0.0000
260 H      0.8246     1.0000     0.1754     0.9603     0.9603    -0.0000
261 H      0.8105     1.0000     0.1895     0.9542     0.9542     0.0000
262 H      0.8087     1.0000     0.1913     0.9539     0.9539     0.0000
263 C      6.0622     6.0000    -0.0622     3.8690     3.8690    -0.0000
264 N      6.9922     7.0000     0.0078     3.1766     3.1766    -0.0000
265 C      5.8375     6.0000     0.1625     3.7112     3.7112    -0.0000
266 C      6.1571     6.0000    -0.1571     3.9275     3.9275    -0.0000
267 N      6.9048     7.0000     0.0952     3.1016     3.1016    -0.0000
268 C      6.0951     6.0000    -0.0951     3.7574     3.7574    -0.0000
269 C      6.1238     6.0000    -0.1238     3.8575     3.8575     0.0000
270 C      6.0736     6.0000    -0.0736     3.7462     3.7462    -0.0000
271 H      0.8420     1.0000     0.1580     0.9624     0.9624    -0.0000
272 H      0.8486     1.0000     0.1514     0.9708     0.9708     0.0000
273 H      0.8248     1.0000     0.1752     0.9600     0.9600    -0.0000
274 H      0.8111     1.0000     0.1889     0.9545     0.9545     0.0000
275 H      0.8089     1.0000     0.1911     0.9538     0.9538    -0.0000
276 Zn    29.6797    30.0000     0.3203     2.7119     2.7119     0.0000
277 C      6.0583     6.0000    -0.0583     3.8685     3.8685    -0.0000
278 N      6.9954     7.0000     0.0046     3.1774     3.1774     0.0000
279 C      5.8384     6.0000     0.1616     3.7172     3.7172     0.0000
280 C      6.1581     6.0000    -0.1581     3.9316     3.9316    -0.0000
281 N      6.9041     7.0000     0.0959     3.1091     3.1091    -0.0000
282 C      6.0940     6.0000    -0.0940     3.7581     3.7581    -0.0000
283 C      6.1230     6.0000    -0.1230     3.8570     3.8570    -0.0000
284 C      6.0753     6.0000    -0.0753     3.7451     3.7451     0.0000
285 H      0.8430     1.0000     0.1570     0.9628     0.9628    -0.0000
286 H      0.8480     1.0000     0.1520     0.9707     0.9707    -0.0000
287 H      0.8243     1.0000     0.1757     0.9599     0.9599    -0.0000
288 H      0.8108     1.0000     0.1892     0.9544     0.9544     0.0000
289 H      0.8088     1.0000     0.1912     0.9538     0.9538     0.0000
290 C      6.0671     6.0000    -0.0671     3.8905     3.8905     0.0000
291 N      6.9775     7.0000     0.0225     3.1738     3.1738     0.0000
292 C      5.8301     6.0000     0.1699     3.6467     3.6467     0.0000
293 C      6.2074     6.0000    -0.2074     3.9121     3.9121    -0.0000
294 N      6.8774     7.0000     0.1226     3.0401     3.0401    -0.0000
295 C      6.0984     6.0000    -0.0984     3.7715     3.7715     0.0000
296 C      6.1213     6.0000    -0.1213     3.8644     3.8644     0.0000
297 C      6.0670     6.0000    -0.0670     3.7399     3.7399     0.0000
298 H      0.8436     1.0000     0.1564     0.9628     0.9628    -0.0000
299 H      0.8469     1.0000     0.1531     0.9701     0.9701    -0.0000
300 H      0.8243     1.0000     0.1757     0.9599     0.9599     0.0000
301 H      0.8103     1.0000     0.1897     0.9541     0.9541     0.0000
302 H      0.8079     1.0000     0.1921     0.9535     0.9535    -0.0000
303 C      6.0604     6.0000    -0.0604     3.8722     3.8722    -0.0000
304 N      6.9851     7.0000     0.0149     3.1675     3.1675    -0.0000
305 C      5.8741     6.0000     0.1259     3.7531     3.7531    -0.0000
306 C      6.1752     6.0000    -0.1752     3.9441     3.9441    -0.0000
307 N      6.8791     7.0000     0.1209     3.1305     3.1305     0.0000
308 C      6.1131     6.0000    -0.1131     3.7725     3.7725    -0.0000
309 C      6.1132     6.0000    -0.1132     3.8530     3.8530    -0.0000
310 C      6.0797     6.0000    -0.0797     3.7478     3.7478    -0.0000
311 H      0.8434     1.0000     0.1566     0.9626     0.9626    -0.0000
312 H      0.8504     1.0000     0.1496     0.9716     0.9716    -0.0000
313 H      0.8248     1.0000     0.1752     0.9604     0.9604     0.0000
314 H      0.8106     1.0000     0.1894     0.9542     0.9542     0.0000
315 H      0.8086     1.0000     0.1914     0.9539     0.9539    -0.0000

  Mayer bond orders larger than 0.100000
B(  0-C ,  1-C ) :   1.2245 B(  0-C ,  3-C ) :   1.4172 B(  0-C ,161-N ) :   0.8780 
B(  1-C ,  2-C ) :   1.3932 B(  1-C , 24-H ) :   0.9709 B(  2-C ,  5-C ) :   1.3616 
B(  2-C , 25-H ) :   0.9559 B(  3-C ,  4-C ) :   1.4100 B(  3-C , 26-H ) :   0.8828 
B(  4-C ,  5-C ) :   1.4089 B(  4-C , 27-H ) :   0.9369 B(  5-C ,  6-C ) :   0.6835 
B(  6-C ,  7-C ) :   1.4209 B(  6-C , 23-C ) :   1.4375 B(  7-C ,  8-C ) :   1.3648 
B(  7-C , 28-H ) :   0.9223 B(  8-C ,  9-C ) :   0.7633 B(  8-C , 15-C ) :   1.3810 
B(  9-C , 10-C ) :   1.3909 B(  9-C , 14-C ) :   1.3186 B( 10-C , 11-C ) :   1.4388 
B( 10-C , 29-H ) :   0.9170 B( 11-C , 12-C ) :   1.3204 B( 11-C , 30-H ) :   0.9074 
B( 12-C , 13-C ) :   1.3755 B( 12-C ,241-N ) :   0.8140 B( 13-C , 14-C ) :   1.3763 
B( 13-C , 31-H ) :   0.9571 B( 14-C , 32-H ) :   0.9436 B( 15-C , 16-C ) :   1.3952 
B( 15-C , 33-H ) :   0.9056 B( 16-C , 17-C ) :   0.7298 B( 16-C , 23-C ) :   1.3734 
B( 17-C , 18-C ) :   1.3942 B( 17-C , 22-C ) :   1.2817 B( 18-C , 19-C ) :   1.4468 
B( 18-C , 34-H ) :   0.9243 B( 19-C , 20-C ) :   1.3612 B( 19-C , 35-H ) :   0.9119 
B( 20-C , 21-C ) :   1.3029 B( 20-C ,201-N ) :   0.8319 B( 21-C , 22-C ) :   1.3586 
B( 21-C , 36-H ) :   0.9686 B( 22-C , 37-H ) :   0.9675 B( 23-C , 38-H ) :   0.9146 
B( 39-C , 40-C ) :   1.3754 B( 39-C , 42-C ) :   1.3208 B( 39-C ,187-N ) :   0.8139 
B( 40-C , 41-C ) :   1.3766 B( 40-C , 63-H ) :   0.9568 B( 41-C , 44-C ) :   1.3193 
B( 41-C , 64-H ) :   0.9440 B( 42-C , 43-C ) :   1.4301 B( 42-C , 65-H ) :   0.9074 
B( 43-C , 44-C ) :   1.3994 B( 43-C , 66-H ) :   0.9203 B( 44-C , 45-C ) :   0.7500 
B( 45-C , 46-C ) :   1.3826 B( 45-C , 62-C ) :   1.4029 B( 46-C , 47-C ) :   1.3859 
B( 46-C , 67-H ) :   0.9106 B( 47-C , 48-C ) :   0.7203 B( 47-C , 54-C ) :   1.3737 
B( 48-C , 49-C ) :   1.3859 B( 48-C , 53-C ) :   1.2997 B( 49-C , 50-C ) :   1.4395 
B( 49-C , 68-H ) :   0.9245 B( 50-C , 51-C ) :   1.3789 B( 50-C , 69-H ) :   0.9093 
B( 51-C , 52-C ) :   1.3012 B( 51-C ,214-N ) :   0.8353 B( 52-C , 53-C ) :   1.3554 
B( 52-C , 70-H ) :   0.9692 B( 53-C , 71-H ) :   0.9677 B( 54-C , 55-C ) :   1.3932 
B( 54-C , 72-H ) :   0.9085 B( 55-C , 56-C ) :   0.7376 B( 55-C , 62-C ) :   1.3981 
B( 56-C , 57-C ) :   1.4116 B( 56-C , 61-C ) :   1.2700 B( 57-C , 58-C ) :   1.4161 
B( 57-C , 73-H ) :   0.9228 B( 58-C , 59-C ) :   1.3078 B( 58-C , 74-H ) :   0.9407 
B( 59-C , 60-C ) :   1.3567 B( 59-C ,281-N ) :   0.8282 B( 60-C , 61-C ) :   1.3536 
B( 60-C , 75-H ) :   0.9613 B( 61-C , 76-H ) :   0.9581 B( 62-C , 77-H ) :   0.8986 
B( 78-C , 79-C ) :   1.3604 B( 78-C , 81-C ) :   1.3097 B( 78-C ,174-N ) :   0.8210 
B( 79-C , 80-C ) :   1.3572 B( 79-C ,102-H ) :   0.9604 B( 80-C , 83-C ) :   1.2745 
B( 80-C ,103-H ) :   0.9564 B( 81-C , 82-C ) :   1.4063 B( 81-C ,104-H ) :   0.9385 
B( 82-C , 83-C ) :   1.4146 B( 82-C ,105-H ) :   0.9225 B( 83-C , 84-C ) :   0.7259 
B( 84-C , 85-C ) :   1.3922 B( 84-C ,101-C ) :   1.4081 B( 85-C , 86-C ) :   1.4024 
B( 85-C ,106-H ) :   0.8972 B( 86-C , 87-C ) :   0.7489 B( 86-C , 93-C ) :   1.3682 
B( 87-C , 88-C ) :   1.4014 B( 87-C , 92-C ) :   1.3128 B( 88-C , 89-C ) :   1.4303 
B( 88-C ,107-H ) :   0.9182 B( 89-C , 90-C ) :   1.3301 B( 89-C ,108-H ) :   0.9072 
B( 90-C , 91-C ) :   1.3718 B( 90-C ,294-N ) :   0.8170 B( 91-C , 92-C ) :   1.3790 
B( 91-C ,109-H ) :   0.9559 B( 92-C ,110-H ) :   0.9446 B( 93-C , 94-C ) :   1.3944 
B( 93-C ,111-H ) :   0.9117 B( 94-C , 95-C ) :   0.7247 B( 94-C ,101-C ) :   1.3715 
B( 95-C , 96-C ) :   1.4083 B( 95-C ,100-C ) :   1.2792 B( 96-C , 97-C ) :   1.3972 
B( 96-C ,112-H ) :   0.9264 B( 97-C , 98-C ) :   1.3155 B( 97-C ,113-H ) :   0.9408 
B( 98-C , 99-C ) :   1.3540 B( 98-C ,267-N ) :   0.8242 B( 99-C ,100-C ) :   1.3587 
B( 99-C ,114-H ) :   0.9618 B(100-C ,115-H ) :   0.9575 B(101-C ,116-H ) :   0.8990 
B(117-C ,118-C ) :   1.2965 B(117-C ,120-C ) :   1.3795 B(117-C ,227-N ) :   0.8325 
B(118-C ,119-C ) :   1.3572 B(118-C ,141-H ) :   0.9711 B(119-C ,122-C ) :   1.2867 
B(119-C ,142-H ) :   0.9691 B(120-C ,121-C ) :   1.4558 B(120-C ,143-H ) :   0.9056 
B(121-C ,122-C ) :   1.3810 B(121-C ,144-H ) :   0.9197 B(122-C ,123-C ) :   0.7424 
B(123-C ,124-C ) :   1.3768 B(123-C ,140-C ) :   1.3876 B(124-C ,125-C ) :   1.4343 
B(124-C ,145-H ) :   0.9153 B(125-C ,126-C ) :   0.7014 B(125-C ,132-C ) :   1.3962 
B(126-C ,127-C ) :   1.4168 B(126-C ,131-C ) :   1.3533 B(127-C ,128-C ) :   1.4106 
B(127-C ,146-H ) :   0.9367 B(128-C ,129-C ) :   1.4177 B(128-C ,147-H ) :   0.8812 
B(129-C ,130-C ) :   1.2241 B(129-C ,254-N ) :   0.8787 B(130-C ,131-C ) :   1.3906 
B(130-C ,148-H ) :   0.9711 B(131-C ,149-H ) :   0.9560 B(132-C ,133-C ) :   1.3999 
B(132-C ,150-H ) :   0.9371 B(133-C ,134-C ) :   0.6959 B(133-C ,140-C ) :   1.4039 
B(134-C ,135-C ) :   1.3738 B(134-C ,139-C ) :   1.3974 B(135-C ,136-C ) :   1.3973 
B(135-C ,151-H ) :   0.9558 B(136-C ,137-C ) :   1.2215 B(136-C ,152-H ) :   0.9705 
B(137-C ,138-C ) :   1.4150 B(137-C ,307-N ) :   0.8772 B(138-C ,139-C ) :   1.4057 
B(138-C ,153-H ) :   0.8822 B(139-C ,154-H ) :   0.9353 B(140-C ,155-H ) :   0.9185 
B(156-Zn,158-N ) :   0.4584 B(156-Zn,161-N ) :   0.3852 B(156-Zn,171-N ) :   0.4502 
B(156-Zn,174-N ) :   0.3864 B(156-Zn,184-N ) :   0.4595 B(156-Zn,187-N ) :   0.3799 
B(157-C ,158-N ) :   1.3859 B(157-C ,164-C ) :   1.3354 B(157-C ,165-H ) :   0.9353 
B(158-N ,159-C ) :   1.2849 B(159-C ,160-C ) :   0.9939 B(159-C ,161-N ) :  -0.1116 
B(159-C ,162-C ) :   1.3778 B(160-C ,161-N ) :   1.8419 B(160-C ,166-H ) :   0.9025 
B(162-C ,163-C ) :   1.3626 B(162-C ,167-H ) :   0.9091 B(163-C ,164-C ) :   1.3735 
B(163-C ,168-H ) :   0.9596 B(164-C ,169-H ) :   0.9327 B(170-C ,171-N ) :   1.3639 
B(170-C ,177-C ) :   1.3462 B(170-C ,178-H ) :   0.9339 B(171-N ,172-C ) :   1.3052 
B(172-C ,173-C ) :   0.9611 B(172-C ,175-C ) :   1.3731 B(173-C ,174-N ) :   1.8449 
B(173-C ,179-H ) :   0.9102 B(175-C ,176-C ) :   1.3621 B(175-C ,180-H ) :   0.9090 
B(176-C ,177-C ) :   1.3706 B(176-C ,181-H ) :   0.9600 B(177-C ,182-H ) :   0.9312 
B(183-C ,184-N ) :   1.3919 B(183-C ,190-C ) :   1.3352 B(183-C ,191-H ) :   0.9344 
B(184-N ,185-C ) :   1.2813 B(185-C ,186-C ) :   0.9246 B(185-C ,187-N ) :  -0.1043 
B(185-C ,188-C ) :   1.3937 B(186-C ,187-N ) :   1.8332 B(186-C ,192-H ) :   0.9290 
B(188-C ,189-C ) :   1.3597 B(188-C ,193-H ) :   0.9073 B(189-C ,190-C ) :   1.3757 
B(189-C ,194-H ) :   0.9588 B(190-C ,195-H ) :   0.9304 B(196-Zn,198-N ) :   0.4641 
B(196-Zn,201-N ) :   0.3793 B(196-Zn,211-N ) :   0.4615 B(196-Zn,214-N ) :   0.3713 
B(196-Zn,224-N ) :   0.4634 B(196-Zn,227-N ) :   0.3786 B(197-C ,198-N ) :   1.3795 
B(197-C ,204-C ) :   1.3412 B(197-C ,205-H ) :   0.9341 B(198-N ,199-C ) :   1.3084 
B(199-C ,200-C ) :   0.9277 B(199-C ,201-N ) :  -0.1051 B(199-C ,202-C ) :   1.3909 
B(200-C ,201-N ) :   1.8575 B(200-C ,206-H ) :   0.9241 B(202-C ,203-C ) :   1.3609 
B(202-C ,207-H ) :   0.9075 B(203-C ,204-C ) :   1.3767 B(203-C ,208-H ) :   0.9587 
B(204-C ,209-H ) :   0.9310 B(210-C ,211-N ) :   1.3820 B(210-C ,217-C ) :   1.3407 
B(210-C ,218-H ) :   0.9338 B(211-N ,212-C ) :   1.3074 B(212-C ,213-C ) :   0.9272 
B(212-C ,214-N ) :  -0.1051 B(212-C ,215-C ) :   1.3936 B(213-C ,214-N ) :   1.8604 
B(213-C ,219-H ) :   0.9221 B(215-C ,216-C ) :   1.3609 B(215-C ,220-H ) :   0.9070 
B(216-C ,217-C ) :   1.3778 B(216-C ,221-H ) :   0.9585 B(217-C ,222-H ) :   0.9309 
B(223-C ,224-N ) :   1.3792 B(223-C ,230-C ) :   1.3413 B(223-C ,231-H ) :   0.9339 
B(224-N ,225-C ) :   1.3094 B(225-C ,226-C ) :   0.9281 B(225-C ,227-N ) :  -0.1070 
B(225-C ,228-C ) :   1.3923 B(226-C ,227-N ) :   1.8629 B(226-C ,232-H ) :   0.9213 
B(228-C ,229-C ) :   1.3610 B(228-C ,233-H ) :   0.9073 B(229-C ,230-C ) :   1.3770 
B(229-C ,234-H ) :   0.9586 B(230-C ,235-H ) :   0.9313 B(236-Zn,238-N ) :   0.4596 
B(236-Zn,241-N ) :   0.3815 B(236-Zn,251-N ) :   0.4577 B(236-Zn,254-N ) :   0.3842 
B(236-Zn,264-N ) :   0.4490 B(236-Zn,267-N ) :   0.3839 B(237-C ,238-N ) :   1.3909 
B(237-C ,244-C ) :   1.3357 B(237-C ,245-H ) :   0.9345 B(238-N ,239-C ) :   1.2824 
B(239-C ,240-C ) :   0.9237 B(239-C ,241-N ) :  -0.1043 B(239-C ,242-C ) :   1.3938 
B(240-C ,241-N ) :   1.8338 B(240-C ,246-H ) :   0.9294 B(242-C ,243-C ) :   1.3595 
B(242-C ,247-H ) :   0.9074 B(243-C ,244-C ) :   1.3754 B(243-C ,248-H ) :   0.9588 
B(244-C ,249-H ) :   0.9305 B(250-C ,251-N ) :   1.3859 B(250-C ,257-C ) :   1.3356 
B(250-C ,258-H ) :   0.9353 B(251-N ,252-C ) :   1.2864 B(252-C ,253-C ) :   0.9946 
B(252-C ,254-N ) :  -0.1112 B(252-C ,255-C ) :   1.3770 B(253-C ,254-N ) :   1.8421 
B(253-C ,259-H ) :   0.9024 B(255-C ,256-C ) :   1.3627 B(255-C ,260-H ) :   0.9093 
B(256-C ,257-C ) :   1.3736 B(256-C ,261-H ) :   0.9596 B(257-C ,262-H ) :   0.9326 
B(263-C ,264-N ) :   1.3643 B(263-C ,270-C ) :   1.3465 B(263-C ,271-H ) :   0.9339 
B(264-N ,265-C ) :   1.3055 B(265-C ,266-C ) :   0.9603 B(265-C ,268-C ) :   1.3733 
B(266-C ,267-N ) :   1.8462 B(266-C ,272-H ) :   0.9101 B(268-C ,269-C ) :   1.3619 
B(268-C ,273-H ) :   0.9091 B(269-C ,270-C ) :   1.3707 B(269-C ,274-H ) :   0.9600 
B(270-C ,275-H ) :   0.9312 B(276-Zn,278-N ) :   0.4465 B(276-Zn,281-N ) :   0.3864 
B(276-Zn,291-N ) :   0.4516 B(276-Zn,294-N ) :   0.3798 B(276-Zn,304-N ) :   0.4669 
B(276-Zn,307-N ) :   0.3847 B(277-C ,278-N ) :   1.3664 B(277-C ,284-C ) :   1.3453 
B(277-C ,285-H ) :   0.9344 B(278-N ,279-C ) :   1.3062 B(279-C ,280-C ) :   0.9638 
B(279-C ,282-C ) :   1.3739 B(280-C ,281-N ) :   1.8449 B(280-C ,286-H ) :   0.9105 
B(282-C ,283-C ) :   1.3612 B(282-C ,287-H ) :   0.9091 B(283-C ,284-C ) :   1.3708 
B(283-C ,288-H ) :   0.9601 B(284-C ,289-H ) :   0.9308 B(290-C ,291-N ) :   1.3932 
B(290-C ,297-C ) :   1.3355 B(290-C ,298-H ) :   0.9341 B(291-N ,292-C ) :   1.2818 
B(292-C ,293-C ) :   0.9236 B(292-C ,294-N ) :  -0.1033 B(292-C ,295-C ) :   1.3951 
B(293-C ,294-N ) :   1.8327 B(293-C ,299-H ) :   0.9290 B(295-C ,296-C ) :   1.3597 
B(295-C ,300-H ) :   0.9069 B(296-C ,297-C ) :   1.3764 B(296-C ,301-H ) :   0.9588 
B(297-C ,302-H ) :   0.9305 B(303-C ,304-N ) :   1.3831 B(303-C ,310-C ) :   1.3358 
B(303-C ,311-H ) :   0.9353 B(304-N ,305-C ) :   1.2853 B(305-C ,306-C ) :   0.9926 
B(305-C ,307-N ) :  -0.1108 B(305-C ,308-C ) :   1.3779 B(306-C ,307-N ) :   1.8427 
B(306-C ,312-H ) :   0.9020 B(308-C ,309-C ) :   1.3629 B(308-C ,313-H ) :   0.9091 
B(309-C ,310-C ) :   1.3729 B(309-C ,314-H ) :   0.9597 B(310-C ,315-H ) :   0.9331 


-------
TIMINGS
-------

Total SCF time: 0 days 0 hours 13 min 29 sec 

Total time                  ....     809.412 sec
Sum of individual times     ....     767.531 sec  ( 94.8%)

Fock matrix formation       ....     446.986 sec  ( 55.2%)
  Split-RI-J                ....     206.841 sec  ( 46.3% of F)
  XC integration            ....     209.700 sec  ( 46.9% of F)
    Basis function eval.    ....      17.198 sec  (  8.2% of XC)
    Density eval.           ....     108.954 sec  ( 52.0% of XC)
    XC-Functional eval.     ....       4.171 sec  (  2.0% of XC)
    XC-Potential eval.      ....      25.544 sec  ( 12.2% of XC)
Diagonalization             ....      82.236 sec  ( 10.2%)
Density matrix formation    ....      10.983 sec  (  1.4%)
Population analysis         ....      59.807 sec  (  7.4%)
Initial guess               ....      12.478 sec  (  1.5%)
Orbital Transformation      ....       0.000 sec  (  0.0%)
Orbital Orthonormalization  ....       0.000 sec  (  0.0%)
DIIS solution               ....      81.697 sec  ( 10.1%)
Grid generation             ....      73.343 sec  (  9.1%)

Maximum memory used throughout the entire SCF-calculation: 3243.8 MB


-------------------------------------------------------------------------------
                          DFT DISPERSION CORRECTION                            
                                                                               
                                 DFTD4 V2.5                                    
-------------------------------------------------------------------------------
The R2SCAN3C composite method is recognized
Using three-body term ABC
Active option DFTDOPT                   ...         5   

Starting D4
-------------------------   ----------------
Dispersion correction           -0.256806237
-------------------------   ----------------

NOTIFICATION: Different basis set in ORCA and otool_gcp:
ORCA: 4500  gCP: 4492 
If you are NOT using ECPs, check your basis set inputs!
------------------   -----------------
gCP correction             0.143438830
------------------   -----------------

-------------------------   --------------------
FINAL SINGLE POINT ENERGY    -14901.634247569580
-------------------------   --------------------


                            ***************************************
                            *     ORCA property calculations      *
                            ***************************************

                                    ---------------------
                                    Active property flags
                                    ---------------------
   (+) Dipole Moment


------------------------------------------------------------------------------
                       ORCA ELECTRIC PROPERTIES CALCULATION
------------------------------------------------------------------------------

Dipole Moment Calculation                       ... on
Quadrupole Moment Calculation                   ... off
Polarizability Calculation                      ... off
GBWName                                         ... Tetrahedron_l0_ald1_ORCA_DFT.gbw
Electron density                                ... Tetrahedron_l0_ald1_ORCA_DFT.scfp
The origin for moment calculation is the CENTER OF MASS  = (-0.295956, -0.709876 -0.946020)

-------------
DIPOLE MOMENT
-------------
                                X             Y             Z
Electronic contribution:     -1.02346      -0.18301       0.58327
Nuclear contribution   :      0.98559      -0.17543      -0.97823
                        -----------------------------------------
Total Dipole Moment    :     -0.03787      -0.35844      -0.39496
                        -----------------------------------------
Magnitude (a.u.)       :      0.53470
Magnitude (Debye)      :      1.35910



--------------------
Rotational spectrum 
--------------------
 
Rotational constants in cm-1:     0.000124     0.000123     0.000122 
Rotational constants in MHz :     3.708252     3.684393     3.666928 

 Dipole components along the rotational axes: 
x,y,z [a.u.] :    -0.418133    -0.201766    -0.265252 
x,y,z [Debye]:    -1.062810    -0.512847    -0.674217 

 

Timings for individual modules:

Sum of individual times         ...      832.884 sec (=  13.881 min)
GTO integral calculation        ...       19.427 sec (=   0.324 min)   2.3 %
SCF iterations                  ...      813.457 sec (=  13.558 min)  97.7 %
                             ****ORCA TERMINATED NORMALLY****
TOTAL RUN TIME: 0 days 0 hours 14 minutes 5 seconds 856 msec
