
                                 *****************
                                 * O   R   C   A *
                                 *****************

                                            #,                                       
                                            ###                                      
                                            ####                                     
                                            #####                                    
                                            ######                                   
                                           ########,                                 
                                     ,,################,,,,,                         
                               ,,#################################,,                 
                          ,,##########################################,,             
                       ,#########################################, ''#####,          
                    ,#############################################,,   '####,        
                  ,##################################################,,,,####,       
                ,###########''''           ''''###############################       
              ,#####''   ,,,,##########,,,,          '''####'''          '####       
            ,##' ,,,,###########################,,,                        '##       
           ' ,,###''''                  '''############,,,                           
         ,,##''                                '''############,,,,        ,,,,,,###''
      ,#''                                            '''#######################'''  
     '                                                          ''''####''''         
             ,#######,   #######,   ,#######,      ##                                
            ,#'     '#,  ##    ##  ,#'     '#,    #''#        ######   ,####,        
            ##       ##  ##   ,#'  ##            #'  '#       #        #'  '#        
            ##       ##  #######   ##           ,######,      #####,   #    #        
            '#,     ,#'  ##    ##  '#,     ,#' ,#      #,         ##   #,  ,#        
             '#######'   ##     ##  '#######'  #'      '#     #####' # '####'        



                  #######################################################
                  #                        -***-                        #
                  #          Department of theory and spectroscopy      #
                  #    Directorship and core code : Frank Neese         #
                  #        Max Planck Institute fuer Kohlenforschung    #
                  #                Kaiser Wilhelm Platz 1               #
                  #                 D-45470 Muelheim/Ruhr               #
                  #                      Germany                        #
                  #                                                     #
                  #                  All rights reserved                #
                  #                        -***-                        #
                  #######################################################


                         Program Version 5.0.4 -  RELEASE  -


 With contributions from (in alphabetic order):
   Daniel Aravena         : Magnetic Suceptibility
   Michael Atanasov       : Ab Initio Ligand Field Theory (pilot matlab implementation)
   Alexander A. Auer      : GIAO ZORA, VPT2 properties, NMR spectrum
   Ute Becker             : Parallelization
   Giovanni Bistoni       : ED, misc. LED, open-shell LED, HFLD
   Martin Brehm           : Molecular dynamics
   Dmytro Bykov           : SCF Hessian
   Vijay G. Chilkuri      : MRCI spin determinant printing, contributions to CSF-ICE
   Dipayan Datta          : RHF DLPNO-CCSD density
   Achintya Kumar Dutta   : EOM-CC, STEOM-CC
   Dmitry Ganyushin       : Spin-Orbit,Spin-Spin,Magnetic field MRCI
   Miquel Garcia          : C-PCM and meta-GGA Hessian, CC/C-PCM, Gaussian charge scheme
   Yang Guo               : DLPNO-NEVPT2, F12-NEVPT2, CIM, IAO-localization
   Andreas Hansen         : Spin unrestricted coupled pair/coupled cluster methods
   Benjamin Helmich-Paris : MC-RPA, TRAH-SCF, COSX integrals
   Lee Huntington         : MR-EOM, pCC
   Robert Izsak           : Overlap fitted RIJCOSX, COSX-SCS-MP3, EOM
   Marcus Kettner         : VPT2
   Christian Kollmar      : KDIIS, OOCD, Brueckner-CCSD(T), CCSD density, CASPT2, CASPT2-K
   Simone Kossmann        : Meta GGA functionals, TD-DFT gradient, OOMP2, MP2 Hessian
   Martin Krupicka        : Initial AUTO-CI
   Lucas Lang             : DCDCAS
   Marvin Lechner         : AUTO-CI (C++ implementation), FIC-MRCC
   Dagmar Lenk            : GEPOL surface, SMD
   Dimitrios Liakos       : Extrapolation schemes; Compound Job, initial MDCI parallelization
   Dimitrios Manganas     : Further ROCIS development; embedding schemes
   Dimitrios Pantazis     : SARC Basis sets
   Anastasios Papadopoulos: AUTO-CI, single reference methods and gradients
   Taras Petrenko         : DFT Hessian,TD-DFT gradient, ASA, ECA, R-Raman, ABS, FL, XAS/XES, NRVS
   Peter Pinski           : DLPNO-MP2, DLPNO-MP2 Gradient
   Christoph Reimann      : Effective Core Potentials
   Marius Retegan         : Local ZFS, SOC
   Christoph Riplinger    : Optimizer, TS searches, QM/MM, DLPNO-CCSD(T), (RO)-DLPNO pert. Triples
   Tobias Risthaus        : Range-separated hybrids, TD-DFT gradient, RPA, STAB
   Michael Roemelt        : Original ROCIS implementation
   Masaaki Saitow         : Open-shell DLPNO-CCSD energy and density
   Barbara Sandhoefer     : DKH picture change effects
   Avijit Sen             : IP-ROCIS
   Kantharuban Sivalingam : CASSCF convergence, NEVPT2, FIC-MRCI
   Bernardo de Souza      : ESD, SOC TD-DFT
   Georgi Stoychev        : AutoAux, RI-MP2 NMR, DLPNO-MP2 response
   Willem Van den Heuvel  : Paramagnetic NMR
   Boris Wezisla          : Elementary symmetry handling
   Frank Wennmohs         : Technical directorship


 We gratefully acknowledge several colleagues who have allowed us to
 interface, adapt or use parts of their codes:
   Stefan Grimme, W. Hujo, H. Kruse, P. Pracht,  : VdW corrections, initial TS optimization,
                  C. Bannwarth, S. Ehlert          DFT functionals, gCP, sTDA/sTD-DF
   Ed Valeev, F. Pavosevic, A. Kumar             : LibInt (2-el integral package), F12 methods
   Garnet Chan, S. Sharma, J. Yang, R. Olivares  : DMRG
   Ulf Ekstrom                                   : XCFun DFT Library
   Mihaly Kallay                                 : mrcc  (arbitrary order and MRCC methods)
   Jiri Pittner, Ondrej Demel                    : Mk-CCSD
   Frank Weinhold                                : gennbo (NPA and NBO analysis)
   Christopher J. Cramer and Donald G. Truhlar   : smd solvation model
   Lars Goerigk                                  : TD-DFT with DH, B97 family of functionals
   V. Asgeirsson, H. Jonsson                     : NEB implementation
   FAccTs GmbH                                   : IRC, NEB, NEB-TS, DLPNO-Multilevel, CI-OPT
                                                   MM, QMMM, 2- and 3-layer-ONIOM, Crystal-QMMM,
                                                   LR-CPCM, SF, NACMEs, symmetry and pop. for TD-DFT,
                                                   nearIR, NL-DFT gradient (VV10), updates on ESD,
                                                   ML-optimized integration grids
   S Lehtola, MJT Oliveira, MAL Marques          : LibXC Library
   Liviu Ungur et al                             : ANISO software


 Your calculation uses the libint2 library for the computation of 2-el integrals
 For citations please refer to: http://libint.valeyev.net

 Your ORCA version has been built with support for libXC version: 5.1.0
 For citations please refer to: https://tddft.org/programs/libxc/

 This ORCA versions uses:
   CBLAS   interface :  Fast vector & matrix operations
   LAPACKE interface :  Fast linear algebra routines
   SCALAPACK package :  Parallel linear algebra routines
   Shared memory     :  Shared parallel matrices
   BLAS/LAPACK       :  OpenBLAS 0.3.15  USE64BITINT DYNAMIC_ARCH NO_AFFINITY Prescott SINGLE_THREADED
        Core in use  :  Prescott
   Copyright (c) 2011-2014, The OpenBLAS Project




***************************************
The coordinates will be read from file: /rds/user/pcpt3/hpc-work/CageConstruction/GreenawayCollab/Tetrahedrons_ORCA_DFT/Tetrahedron_l1_ald1_ORCA_DFT/Tetrahedron_l1_ald1_XTB.xyz
***************************************


Your calculation utilizes the geometrical counterpoise correction gCP
Please cite in your paper:
H.Kruse, S. Grimme J.Chem.Phys., 136, (2012), 154101 
   

Your calculation utilizes the atom-pairwise dispersion correction
based on tight binding partial charges (D4)
Cite in your paper:
E.Caldeweyher, C.Bannwarth, S.Grimme, J.Chem.Phys., (2017), 147, 034112.
E.Caldeweyher, S.Ehlert, A.Hansen, H.Neugebauer, S.Grimme, J.Chem.Phys., (2018), in progress.
   

================================================================================

----- Orbital basis set information -----
Your calculation utilizes the basis: def2-mTZVPP
   Stefan Grimme, Andreas Hansen, Sebastian Ehlert, and Jan-Michael Mewes 
   J. Chem. Phys. 154, 000000 (2021). DOI: 10.1063/5.0040021

----- AuxJ basis set information -----
Your calculation utilizes the auxiliary basis: def2/J
   F. Weigend, Phys. Chem. Chem. Phys. 8, 1057 (2006).

================================================================================
                                        WARNINGS
                       Please study these warnings very carefully!
================================================================================

Using LibXC functional ID 497 : Re-regularized SCAN exchange by Furness et al
[ 1]  J. W. Furness, A. D. Kaplan, J. Ning, J. P. Perdew, and J. Sun, J. Phys. Chem. Lett. 11, 8208 (2020)
[ 2]  J. W. Furness, A. D. Kaplan, J. Ning, J. P. Perdew, and J. Sun, J. Phys. Chem. Lett. 11, 9248 (2020)
Using LibXC functional ID 498 : Re-regularized SCAN correlation by Furness et al
[ 1]  J. W. Furness, A. D. Kaplan, J. Ning, J. P. Perdew, and J. Sun, J. Phys. Chem. Lett. 11, 8208 (2020)
[ 2]  J. W. Furness, A. D. Kaplan, J. Ning, J. P. Perdew, and J. Sun, J. Phys. Chem. Lett. 11, 9248 (2020)
Using LibXC functional ID 497 : Re-regularized SCAN exchange by Furness et al
[ 1]  J. W. Furness, A. D. Kaplan, J. Ning, J. P. Perdew, and J. Sun, J. Phys. Chem. Lett. 11, 8208 (2020)
[ 2]  J. W. Furness, A. D. Kaplan, J. Ning, J. P. Perdew, and J. Sun, J. Phys. Chem. Lett. 11, 9248 (2020)
Using LibXC functional ID 498 : Re-regularized SCAN correlation by Furness et al
[ 1]  J. W. Furness, A. D. Kaplan, J. Ning, J. P. Perdew, and J. Sun, J. Phys. Chem. Lett. 11, 8208 (2020)
[ 2]  J. W. Furness, A. D. Kaplan, J. Ning, J. P. Perdew, and J. Sun, J. Phys. Chem. Lett. 11, 9248 (2020)

INFO   : the flag for use of the SHARK integral package has been found!

================================================================================
                                       INPUT FILE
================================================================================
NAME = Tetrahedron_l1_ald1_ORCA_DFT.inp
|  1> ! r2SCAN-3c ENERGY TightSCF def2/J 
|  2> %PAL NPROCS 32 END 
|  3> %maxcore 5316 
|  4> 
|  5> *xyzfile 8 1 /rds/user/pcpt3/hpc-work/CageConstruction/GreenawayCollab/Tetrahedrons_ORCA_DFT/Tetrahedron_l1_ald1_ORCA_DFT/Tetrahedron_l1_ald1_XTB.xyz 
|  6> 
|  7>                          ****END OF INPUT****
================================================================================

                       ****************************
                       * Single Point Calculation *
                       ****************************

---------------------------------
CARTESIAN COORDINATES (ANGSTROEM)
---------------------------------
  C     -1.252300   -2.665500    2.734400
  C      0.103100   -2.750600    2.429400
  C      0.518900   -3.103700    1.145400
  C     -0.433000   -3.384500    0.169500
  C     -1.794100   -3.302300    0.463900
  C     -2.197600   -2.949200    1.748400
  H      0.823500   -2.562300    3.208500
  H     -0.099300   -3.689200   -0.809000
  H     -3.251400   -2.922400    1.972800
  C     -2.803400    0.988700    2.897400
  C     -3.542400   -0.086000    2.411200
  C     -4.026000   -0.078200    1.102700
  C     -3.776000    1.020800    0.286000
  C     -3.036600    2.103400    0.762800
  C     -2.558900    2.084800    2.070000
  H     -3.753600   -0.911800    3.070800
  H     -4.183800    1.029900   -0.711600
  H     -2.018300    2.941700    2.437600
  C      1.134800    0.492200    3.078500
  C      0.578900    1.727600    2.759000
  C      0.855200    2.332100    1.532500
  C      1.704200    1.696900    0.630800
  C      2.266900    0.458500    0.940500
  C      1.984300   -0.135400    2.167200
  H     -0.048500    2.218200    3.485100
  H      1.937000    2.189800   -0.298900
  H      2.452000   -1.075800    2.408800
  C     -2.024200   -0.464300   -2.307900
  C     -0.994000   -1.400200   -2.319600
  C      0.335500   -0.990800   -2.214900
  C      0.628800    0.365900   -2.111200
  C     -0.395600    1.312700   -2.098300
  C     -1.718500    0.892800   -2.203500
  H     -1.240900   -2.442900   -2.435000
  H      1.661200    0.672000   -2.065200
  H     -2.498900    1.635700   -2.226800
  Zn    -1.107000   -0.560900    5.352700
  C     -3.295900   -1.064600    7.555600
  N     -2.752800   -1.438000    6.405400
  C     -3.073600   -2.653200    5.919400
  C     -2.509600   -3.021300    4.640100
  N     -1.655800   -2.292800    4.025200
  C     -3.930500   -3.524500    6.595000
  C     -4.478900   -3.131500    7.810600
  C     -4.163600   -1.870100    8.292100
  H     -3.035600   -0.083100    7.923600
  H     -2.857500   -3.965200    4.217400
  H     -4.154700   -4.497300    6.184100
  H     -5.133500   -3.789700    8.363000
  H     -4.572800   -1.513500    9.225200
  C      0.102300   -2.331800    7.654900
  N      0.313700   -1.614100    6.560600
  C      1.582400   -1.268000    6.266400
  C      1.796800   -0.527500    5.043400
  N      0.834900   -0.111700    4.308600
  C      2.659900   -1.619700    7.082000
  C      2.425200   -2.355200    8.238100
  C      1.120300   -2.728500    8.521300
  H     -0.919600   -2.609000    7.868300
  H      2.837400   -0.341500    4.772700
  H      3.662400   -1.313100    6.824100
  H      3.237000   -2.629500    8.895900
  H      0.887300   -3.309800    9.400500
  C     -0.509300    1.238700    7.863100
  N     -1.076800    1.127100    6.670300
  C     -1.961900    2.073300    6.299900
  C     -2.532200    1.960200    4.976200
  N     -2.309000    0.959800    4.209900
  C     -2.308800    3.137900    7.134200
  C     -1.723200    3.234700    8.391400
  C     -0.795100    2.271100    8.755600
  H      0.205600    0.477000    8.137900
  H     -3.169800    2.786400    4.657600
  H     -3.033000    3.870600    6.811500
  H     -1.982600    4.038900    9.064200
  H     -0.303800    2.308200    9.716100
  Zn    -4.547700   -2.420200   -1.252600
  C     -5.166800   -4.232600   -3.748400
  N     -4.392000   -3.990300   -2.700300
  C     -3.537500   -4.955900   -2.308800
  C     -2.667100   -4.653500   -1.194700
  N     -2.755800   -3.568300   -0.522100
  C     -3.463600   -6.192800   -2.952600
  C     -4.294800   -6.444400   -4.038200
  C     -5.154000   -5.437200   -4.450400
  H     -5.837200   -3.442800   -4.054000
  H     -1.916400   -5.408400   -0.955300
  H     -2.777700   -6.949700   -2.603300
  H     -4.270300   -7.396900   -4.547000
  H     -5.811000   -5.578800   -5.295100
  C     -6.647100   -4.625100   -0.459000
  N     -6.012800   -3.508000   -0.131600
  C     -6.484900   -2.794400    0.909500
  C     -5.750200   -1.606000    1.281000
  N     -4.756500   -1.167100    0.604400
  C     -7.619000   -3.181700    1.626300
  C     -8.288800   -4.344200    1.262200
  C     -7.782800   -5.086000    0.205600
  H     -6.247600   -5.189100   -1.289000
  H     -6.089600   -1.096400    2.184300
  H     -7.978800   -2.578400    2.446100
  H     -9.176900   -4.661300    1.788900
  H     -8.259600   -6.002100   -0.108300
  C     -7.365500   -1.664200   -2.430300
  N     -6.061900   -1.425700   -2.394700
  C     -5.536300   -0.639300   -3.354500
  C     -4.122100   -0.351500   -3.269500
  N     -3.357400   -0.891600   -2.397000
  C     -6.311200   -0.096700   -4.381700
  C     -7.673800   -0.369500   -4.421500
  C     -8.211600   -1.159200   -3.416800
  H     -7.770200   -2.287600   -1.646600
  H     -3.734800    0.364000   -3.996700
  H     -5.855000    0.517400   -5.143400
  H     -8.295900    0.024500   -5.211900
  H     -9.265800   -1.390300   -3.396300
  Zn     3.114800   -2.274800   -0.824400
  C      5.934200   -3.053500    0.335000
  N      4.616400   -3.071100    0.478600
  C      4.092900   -3.888500    1.413300
  C      2.658100   -3.856700    1.587500
  N      1.884100   -3.174100    0.830700
  C      4.886400   -4.720500    2.205800
  C      6.265900   -4.709300    2.033500
  C      6.799000   -3.847800    1.086800
  H      6.336000   -2.384200   -0.411500
  H      2.263000   -4.451300    2.412800
  H      4.432700   -5.374200    2.935400
  H      6.904000   -5.352200    2.622000
  H      7.864500   -3.793300    0.923100
  C      4.027200   -5.030800   -2.036400
  N      3.172100   -4.018300   -2.066400
  C      2.372100   -3.897600   -3.144100
  C      1.412900   -2.816000   -3.134900
  N      1.374800   -1.932900   -2.209500
  C      2.434800   -4.782400   -4.222600
  C      3.349200   -5.829200   -4.190400
  C      4.151600   -5.961300   -3.067400
  H      4.652200   -5.117500   -1.159800
  H      0.709500   -2.793100   -3.968800
  H      1.789100   -4.647700   -5.077200
  H      3.430400   -6.520800   -5.016100
  H      4.869100   -6.764000   -2.988800
  C      5.324800   -1.784700   -3.009200
  N      4.586600   -1.287700   -2.026600
  C      4.936700   -0.090900   -1.515500
  C      4.090200    0.455900   -0.478900
  N      3.109400   -0.192100    0.026900
  C      6.051100    0.617200   -1.969800
  C      6.830600    0.077800   -2.986800
  C      6.450000   -1.142300   -3.524500
  H      5.022300   -2.739500   -3.413500
  H      4.332100    1.467000   -0.147300
  H      6.311700    1.567000   -1.527700
  H      7.706700    0.595700   -3.348800
  H      7.015000   -1.597500   -4.323600
  Zn    -0.867400    4.283700   -0.596000
  C     -2.077800    6.079100   -2.878500
  N     -2.275100    5.139700   -1.964300
  C     -3.545800    4.824000   -1.645600
  C     -3.739700    3.763500   -0.682500
  N     -2.768800    3.205100   -0.063300
  C     -4.641900    5.465300   -2.226400
  C     -4.423900    6.463200   -3.169500
  C     -3.114300    6.765500   -3.509900
  H     -1.052900    6.310800   -3.128600
  H     -4.772600    3.456200   -0.510400
  H     -5.646900    5.197700   -1.937100
  H     -5.251700    6.986700   -3.625100
  H     -2.892600    7.524300   -4.245100
  C     -1.759700    7.052400    0.602500
  N     -1.111100    5.909400    0.776500
  C     -0.280100    5.808100    1.832500
  C      0.379500    4.537300    2.032400
  N      0.282900    3.569200    1.200900
  C     -0.069700    6.865100    2.720400
  C     -0.739300    8.066500    2.517400
  C     -1.611300    8.154900    1.443100
  H     -2.429600    7.110900   -0.242800
  H      0.970300    4.443000    2.945000
  H      0.614700    6.754700    3.547900
  H     -0.585700    8.906200    3.179300
  H     -2.163800    9.061800    1.249500
  C      1.211700    6.501200   -1.406800
  N      0.772200    5.260900   -1.567100
  C      1.215900    4.565200   -2.632400
  C      0.763300    3.198300   -2.761900
  N     -0.104100    2.679400   -1.976900
  C      2.093700    5.114600   -3.569200
  C      2.532800    6.423200   -3.403100
  C      2.091300    7.124200   -2.291300
  H      0.853700    7.039100   -0.541300
  H      1.209100    2.621400   -3.573900
  H      2.417800    4.533900   -4.419600
  H      3.200600    6.879700   -4.119000
  H      2.412600    8.138900   -2.110900

----------------------------
CARTESIAN COORDINATES (A.U.)
----------------------------
  NO LB      ZA    FRAG     MASS         X           Y           Z
   0 C     6.0000    0    12.011   -2.366504   -5.037065    5.167267
   1 C     6.0000    0    12.011    0.194831   -5.197881    4.590901
   2 C     6.0000    0    12.011    0.980579   -5.865143    2.164492
   3 C     6.0000    0    12.011   -0.818251   -6.395778    0.320309
   4 C     6.0000    0    12.011   -3.390358   -6.240443    0.876644
   5 C     6.0000    0    12.011   -4.152862   -5.573180    3.303997
   6 H     1.0000    0     1.008    1.556189   -4.842045    6.063186
   7 H     1.0000    0     1.008   -0.187650   -6.971578   -1.528788
   8 H     1.0000    0     1.008   -6.144256   -5.522536    3.728052
   9 C     6.0000    0    12.011   -5.297658    1.868372    5.475293
  10 C     6.0000    0    12.011   -6.694166   -0.162516    4.556508
  11 C     6.0000    0    12.011   -7.608037   -0.147777    2.083801
  12 C     6.0000    0    12.011   -7.135606    1.929032    0.540462
  13 C     6.0000    0    12.011   -5.738342    3.974850    1.441483
  14 C     6.0000    0    12.011   -4.835620    3.939701    3.911733
  15 H     1.0000    0     1.008   -7.093276   -1.723052    5.802971
  16 H     1.0000    0     1.008   -7.906236    1.946229   -1.344729
  17 H     1.0000    0     1.008   -3.814034    5.559007    4.606396
  18 C     6.0000    0    12.011    2.144461    0.930123    5.817522
  19 C     6.0000    0    12.011    1.093962    3.264691    5.213754
  20 C     6.0000    0    12.011    1.616094    4.407030    2.896005
  21 C     6.0000    0    12.011    3.220471    3.206676    1.192039
  22 C     6.0000    0    12.011    4.283820    0.866439    1.777287
  23 C     6.0000    0    12.011    3.749784   -0.255869    4.095414
  24 H     1.0000    0     1.008   -0.091652    4.191791    6.585885
  25 H     1.0000    0     1.008    3.660400    4.138122   -0.564839
  26 H     1.0000    0     1.008    4.633608   -2.032967    4.551972
  27 C     6.0000    0    12.011   -3.825184   -0.877400   -4.361299
  28 C     6.0000    0    12.011   -1.878388   -2.645995   -4.383409
  29 C     6.0000    0    12.011    0.634003   -1.872341   -4.185554
  30 C     6.0000    0    12.011    1.188260    0.691451   -3.989590
  31 C     6.0000    0    12.011   -0.747576    2.480643   -3.965212
  32 C     6.0000    0    12.011   -3.247494    1.687147   -4.164012
  33 H     1.0000    0     1.008   -2.344961   -4.616412   -4.601483
  34 H     1.0000    0     1.008    3.139213    1.269896   -3.902662
  35 H     1.0000    0     1.008   -4.722237    3.091025   -4.208042
  36 Zn   30.0000    0    65.380   -2.091927   -1.059947   10.115137
  37 C     6.0000    0    12.011   -6.228348   -2.011802   14.278015
  38 N     7.0000    0    14.007   -5.202038   -2.717426   12.104452
  39 C     6.0000    0    12.011   -5.808262   -5.013821   11.186045
  40 C     6.0000    0    12.011   -4.742457   -5.709430    8.768518
  41 N     7.0000    0    14.007   -3.129009   -4.332764    7.606526
  42 C     6.0000    0    12.011   -7.427569   -6.660340   12.462744
  43 C     6.0000    0    12.011   -8.463894   -5.917677   14.759895
  44 C     6.0000    0    12.011   -7.868064   -3.533977   15.669798
  45 H     1.0000    0     1.008   -5.736453   -0.157036   14.973434
  46 H     1.0000    0     1.008   -5.399892   -7.493142    7.969731
  47 H     1.0000    0     1.008   -7.851245   -8.498665   11.686255
  48 H     1.0000    0     1.008   -9.700909   -7.161495   15.803780
  49 H     1.0000    0     1.008   -8.641340   -2.860101   17.433102
  50 C     6.0000    0    12.011    0.193319   -4.406463   14.465665
  51 N     7.0000    0    14.007    0.592807   -3.050207   12.397737
  52 C     6.0000    0    12.011    2.990303   -2.396173   11.841780
  53 C     6.0000    0    12.011    3.395460   -0.996831    9.530645
  54 N     7.0000    0    14.007    1.577732   -0.211082    8.142074
  55 C     6.0000    0    12.011    5.026483   -3.060789   13.383040
  56 C     6.0000    0    12.011    4.582964   -4.450683   15.567753
  57 C     6.0000    0    12.011    2.117060   -5.156118   16.102923
  58 H     1.0000    0     1.008   -1.737792   -4.930295   14.868932
  59 H     1.0000    0     1.008    5.361909   -0.645341    9.019096
  60 H     1.0000    0     1.008    6.920933   -2.481399   12.895680
  61 H     1.0000    0     1.008    6.117043   -4.969035   16.810815
  62 H     1.0000    0     1.008    1.676754   -6.254616   17.764371
  63 C     6.0000    0    12.011   -0.962438    2.340804   14.859106
  64 N     7.0000    0    14.007   -2.034857    2.129910   12.605040
  65 C     6.0000    0    12.011   -3.707454    3.917969   11.905086
  66 C     6.0000    0    12.011   -4.785165    3.704241    9.403655
  67 N     7.0000    0    14.007   -4.363378    1.813759    7.955558
  68 C     6.0000    0    12.011   -4.363000    5.929772   13.481684
  69 C     6.0000    0    12.011   -3.256376    6.112697   15.857448
  70 C     6.0000    0    12.011   -1.502521    4.291757   16.545686
  71 H     1.0000    0     1.008    0.388528    0.901399   15.378402
  72 H     1.0000    0     1.008   -5.990054    5.265533    8.801588
  73 H     1.0000    0     1.008   -5.731539    7.314374   12.871870
  74 H     1.0000    0     1.008   -3.746571    7.632415   17.128856
  75 H     1.0000    0     1.008   -0.574099    4.361866   18.360768
  76 Zn   30.0000    0    65.380   -8.593908   -4.573515   -2.367071
  77 C     6.0000    0    12.011   -9.763837   -7.998455   -7.083449
  78 N     7.0000    0    14.007   -8.299677   -7.540574   -5.102827
  79 C     6.0000    0    12.011   -6.684906   -9.365294   -4.363000
  80 C     6.0000    0    12.011   -5.040089   -8.793841   -2.257656
  81 N     7.0000    0    14.007   -5.207707   -6.743110   -0.986626
  82 C     6.0000    0    12.011   -6.545255  -11.702696   -5.579605
  83 C     6.0000    0    12.011   -8.115996  -12.178151   -7.631092
  84 C     6.0000    0    12.011   -9.739648  -10.274819   -8.410037
  85 H     1.0000    0     1.008  -11.030709   -6.505949   -7.660950
  86 H     1.0000    0     1.008   -3.621471  -10.220395   -1.805255
  87 H     1.0000    0     1.008   -5.249092  -13.133030   -4.919524
  88 H     1.0000    0     1.008   -8.069698  -13.978115   -8.592585
  89 H     1.0000    0     1.008  -10.981199  -10.542404  -10.006289
  90 C     6.0000    0    12.011  -12.561199   -8.740172   -0.867384
  91 N     7.0000    0    14.007  -11.362545   -6.629159   -0.248688
  92 C     6.0000    0    12.011  -12.254685   -5.280651    1.718706
  93 C     6.0000    0    12.011  -10.866303   -3.034900    2.420739
  94 N     7.0000    0    14.007   -8.988482   -2.205499    1.142150
  95 C     6.0000    0    12.011  -14.397823   -6.012542    3.073262
  96 C     6.0000    0    12.011  -15.663562   -8.209348    2.385212
  97 C     6.0000    0    12.011  -14.707361   -9.611147    0.388528
  98 H     1.0000    0     1.008  -11.806253   -9.805978   -2.435857
  99 H     1.0000    0     1.008  -11.507676   -2.071896    4.127729
 100 H     1.0000    0     1.008  -15.077747   -4.872470    4.622459
 101 H     1.0000    0     1.008  -17.341828   -8.808580    3.380531
 102 H     1.0000    0     1.008  -15.608382  -11.342325   -0.204657
 103 C     6.0000    0    12.011  -13.918778   -3.144882   -4.592601
 104 N     7.0000    0    14.007  -11.455331   -2.694183   -4.525327
 105 C     6.0000    0    12.011  -10.462091   -1.208102   -6.339086
 106 C     6.0000    0    12.011   -7.789640   -0.664239   -6.178460
 107 N     7.0000    0    14.007   -6.344567   -1.684880   -4.529674
 108 C     6.0000    0    12.011  -11.926440   -0.182737   -8.280213
 109 C     6.0000    0    12.011  -14.501380   -0.698254   -8.355424
 110 C     6.0000    0    12.011  -15.517675   -2.190571   -6.456816
 111 H     1.0000    0     1.008  -14.683550   -4.322938   -3.111623
 112 H     1.0000    0     1.008   -7.057749    0.687860   -7.552668
 113 H     1.0000    0     1.008  -11.064347    0.977744   -9.719617
 114 H     1.0000    0     1.008  -15.676979    0.046298   -9.849064
 115 H     1.0000    0     1.008  -17.509824   -2.627286   -6.418077
 116 Zn   30.0000    0    65.380    5.886119   -4.298749   -1.557890
 117 C     6.0000    0    12.011   11.214013   -5.770279    0.633058
 118 N     7.0000    0    14.007    8.723732   -5.803538    0.904423
 119 C     6.0000    0    12.011    7.734460   -7.348200    2.670750
 120 C     6.0000    0    12.011    5.023081   -7.288107    2.999940
 121 N     7.0000    0    14.007    3.560433   -5.998180    1.569795
 122 C     6.0000    0    12.011    9.233958   -8.920452    4.168358
 123 C     6.0000    0    12.011   11.840835   -8.899287    3.842758
 124 C     6.0000    0    12.011   12.848248   -7.271288    2.053754
 125 H     1.0000    0     1.008   11.973305   -4.505485   -0.777622
 126 H     1.0000    0     1.008    4.276450   -8.411738    4.559531
 127 H     1.0000    0     1.008    8.376589  -10.155766    5.547102
 128 H     1.0000    0     1.008   13.046669  -10.114192    4.954862
 129 H     1.0000    0     1.008   14.861751   -7.168298    1.744406
 130 C     6.0000    0    12.011    7.610305   -9.506834   -3.848238
 131 N     7.0000    0    14.007    5.994400   -7.593487   -3.904930
 132 C     6.0000    0    12.011    4.482619   -7.365397   -5.941488
 133 C     6.0000    0    12.011    2.669994   -5.321469   -5.924102
 134 N     7.0000    0    14.007    2.597995   -3.652652   -4.175350
 135 C     6.0000    0    12.011    4.601105   -9.037426   -7.979558
 136 C     6.0000    0    12.011    6.329071  -11.015592   -7.918708
 137 C     6.0000    0    12.011    7.845387  -11.265224   -5.796546
 138 H     1.0000    0     1.008    8.791384   -9.670673   -2.191704
 139 H     1.0000    0     1.008    1.340761   -5.278194   -7.499945
 140 H     1.0000    0     1.008    3.380909   -8.782880   -9.594518
 141 H     1.0000    0     1.008    6.482517  -12.322526   -9.479055
 142 H     1.0000    0     1.008    9.201266  -12.782108   -5.648013
 143 C     6.0000    0    12.011   10.062414   -3.372594   -5.686564
 144 N     7.0000    0    14.007    8.667418   -2.433400   -3.829719
 145 C     6.0000    0    12.011    9.329011   -0.171776   -2.863880
 146 C     6.0000    0    12.011    7.729358    0.861526   -0.904990
 147 N     7.0000    0    14.007    5.875914   -0.363016    0.050834
 148 C     6.0000    0    12.011   11.434922    1.166339   -3.722383
 149 C     6.0000    0    12.011   12.907963    0.147021   -5.644234
 150 C     6.0000    0    12.011   12.188734   -2.158634   -6.660340
 151 H     1.0000    0     1.008    9.490772   -5.176905   -6.450580
 152 H     1.0000    0     1.008    8.186483    2.772228   -0.278357
 153 H     1.0000    0     1.008   11.927384    2.961201   -2.886935
 154 H     1.0000    0     1.008   14.563552    1.125710   -6.328315
 155 H     1.0000    0     1.008   13.256429   -3.018837   -8.170420
 156 Zn   30.0000    0    65.380   -1.639148    8.095020   -1.126277
 157 C     6.0000    0    12.011   -3.926473   11.487834   -5.439577
 158 N     7.0000    0    14.007   -4.299316    9.712625   -3.711989
 159 C     6.0000    0    12.011   -6.700591    9.116039   -3.109733
 160 C     6.0000    0    12.011   -7.067009    7.111984   -1.289738
 161 N     7.0000    0    14.007   -5.232274    6.056761   -0.119620
 162 C     6.0000    0    12.011   -8.771920   10.327920   -4.207286
 163 C     6.0000    0    12.011   -8.359959   12.213678   -5.989487
 164 C     6.0000    0    12.011   -5.885174   12.784942   -6.632750
 165 H     1.0000    0     1.008   -1.989693   11.925684   -5.912197
 166 H     1.0000    0     1.008   -9.018907    6.531271   -0.964516
 167 H     1.0000    0     1.008  -10.671095    9.822230   -3.660588
 168 H     1.0000    0     1.008   -9.924275   13.202950   -6.850446
 169 H     1.0000    0     1.008   -5.466222   14.218866   -8.022076
 170 C     6.0000    0    12.011   -3.325351   13.327105    1.138560
 171 N     7.0000    0    14.007   -2.099675   11.167148    1.467372
 172 C     6.0000    0    12.011   -0.529312   10.975718    3.462923
 173 C     6.0000    0    12.011    0.717151    8.574254    3.840679
 174 N     7.0000    0    14.007    0.534604    6.744811    2.269372
 175 C     6.0000    0    12.011   -0.131714   12.973159    5.140811
 176 C     6.0000    0    12.011   -1.397075   15.243476    4.757197
 177 C     6.0000    0    12.011   -3.044916   15.410528    2.727064
 178 H     1.0000    0     1.008   -4.591279   13.437654   -0.458826
 179 H     1.0000    0     1.008    1.833601    8.396053    5.565243
 180 H     1.0000    0     1.008    1.161615   12.764533    6.704559
 181 H     1.0000    0     1.008   -1.106813   16.830279    6.008006
 182 H     1.0000    0     1.008   -4.088989   17.124320    2.361213
 183 C     6.0000    0    12.011    2.289781   12.285488   -2.658467
 184 N     7.0000    0    14.007    1.459247    9.941660   -2.961390
 185 C     6.0000    0    12.011    2.297718    8.626978   -4.974515
 186 C     6.0000    0    12.011    1.442428    6.043911   -5.219235
 187 N     7.0000    0    14.007   -0.196720    5.063332   -3.735800
 188 C     6.0000    0    12.011    3.956520    9.665193   -6.744811
 189 C     6.0000    0    12.011    4.786298   12.138089   -6.430927
 190 C     6.0000    0    12.011    3.951984   13.462787   -4.329929
 191 H     1.0000    0     1.008    1.613259   13.301971   -1.022909
 192 H     1.0000    0     1.008    2.284868    4.953728   -6.753692
 193 H     1.0000    0     1.008    4.568980    8.567829   -8.351834
 194 H     1.0000    0     1.008    6.048257   13.000749   -7.783782
 195 H     1.0000    0     1.008    4.559153   15.380292   -3.989023

--------------------------------
INTERNAL COORDINATES (ANGSTROEM)
--------------------------------
 C      0   0   0     0.000000000000     0.00000000     0.00000000
 C      1   0   0     1.391896608948     0.00000000     0.00000000
 C      2   1   0     1.395071772347   120.49001240     0.00000000
 C      3   2   1     1.391884715054   119.50773994   359.37679477
 C      4   3   2     1.394998713261   120.49207579     0.62663188
 C      5   4   3     1.391916703686   119.50799482   359.36458607
 H      2   1   3     1.077696552839   118.80564474   181.46305149
 H      4   3   2     1.077803335493   118.80490860   182.09145957
 H      6   5   4     1.077760659887   118.80910645   182.09915924
 C      1   2   3     3.973116893574   116.44791012   257.96100624
 C     10   1   2     1.391938048190    58.85697287   144.46547034
 C     11  10   1     1.395027616214   120.48823743   240.39190012
 C     12  11  10     1.391869207217   119.50635039   359.36023336
 C     13  12  11     1.395017333226   120.49133257     0.63505855
 C     14  13  12     1.391874667490   119.50727017   359.36930710
 H     11  10   1     1.077786268237   118.80584175    61.84399040
 H     13  12  11     1.077770573916   118.80455837   182.09207663
 H     15  14  13     1.077801340693   118.80537392   182.09645000
 C      7   2   1     3.073073045015   102.16930831   273.64325557
 C     19   7   2     1.391875791872   148.37164480    26.85670775
 C     20  19   7     1.395014046524   120.48598039   262.88251706
 C     21  20  19     1.391884668354   119.51346672   359.36421423
 C     22  21  20     1.395055532945   120.48601575     0.63777156
 C     23  22  21     1.391895419922   119.50683969   359.35999687
 H     20  19   7     1.077747804451   118.80852412    84.33958557
 H     22  21  20     1.077723684439   118.80892637   182.09772447
 H     24  23  22     1.077713324591   118.80177840   182.09504626
 C     17  13  12     3.073219726931   102.16870015   273.64548040
 C     28  17  13     1.391889988469   148.36385005    26.86140021
 C     29  28  17     1.395041468918   120.49173850   262.87992588
 C     30  29  28     1.391910007867   119.50197819   359.37793819
 C     31  30  29     1.394988175577   120.49721045     0.62846371
 C     32  31  30     1.391922217654   119.50386944   359.36414801
 H     29  28  17     1.077729121811   118.80817270    84.35096993
 H     31  30  29     1.077804699377   118.80560859   182.08869432
 H     33  32  31     1.077713997311   118.80971085   182.09870316
 Zn     1   2   3     3.362431878864    99.60297162   203.76540520
 C     37   1   2     3.146071408916   114.51730315   213.05009891
 N     38  37   1     1.325648976917    32.06144665     2.36284678
 C     39  38  37     1.347523535973   117.99597030   166.25876529
 C     40  39  38     1.445753125537   117.12105779   177.78056037
 N     41  40  39     1.279761188660   122.71697184     5.59023112
 C     40  39  38     1.396379840874   122.29600395   358.88975187
 C     43  40  39     1.390278720257   119.25588815     0.15619232
 C     44  43  40     1.386501460511   118.10665571     1.01515361
 H     38  37   1     1.080056637404    85.72177652   195.21698614
 H     41  40  39     1.091172264127   116.01757142   185.81017093
 H     43  40  39     1.079557450996   120.36835300   180.92587062
 H     44  43  40     1.080219496214   120.92526015   180.89811449
 H     45  44  43     1.079483121684   120.96526544   179.28063736
 C     37   1   2     3.146206944878   103.53859570   287.44733100
 N     51  37   1     1.325622774397    32.05993586    78.97996923
 C     52  51  37     1.347567638377   117.99614978   166.31240102
 C     53  52  51     1.445695891258   117.12057216   177.79645799
 N     54  53  52     1.279871981879   122.72646928     5.55530909
 C     53  52  51     1.396389093340   122.29442316   358.89256556
 C     56  53  52     1.390183998613   119.25579323     0.15613780
 C     57  56  53     1.386477241068   118.11259907     1.00870948
 H     51  37   1     1.080119905381    85.72025621   271.78509639
 H     54  53  52     1.091202478919   116.01425232   185.77585628
 H     56  53  52     1.079593543886   120.36285481   180.92572212
 H     57  56  53     1.080259491974   120.92158212   180.89454623
 H     58  57  56     1.079440285518   120.96492210   179.28999662
 C     46  38  37     2.851842769158   128.86313116   328.01355241
 N     64  46  38     1.325625380717    66.47417031    70.71360837
 C     65  64  46     1.347550596453   117.99535775    85.52265658
 C     66  65  64     1.445757721750   117.11813066   177.77858830
 N     67  66  65     1.279778922314   122.72303149     5.58270755
 C     66  65  64     1.396341383760   122.29574493   358.88908340
 C     69  66  65     1.390269556597   119.25793697     0.15284905
 C     70  69  66     1.386555519985   118.10431782     1.02116211
 H     64  46  38     1.080177735375   104.71751454   317.36429312
 H     67  66  65     1.091167338221   116.01424549   185.80459828
 H     69  66  65     1.079560197488   120.36545700   180.92491573
 H     70  69  66     1.080132325227   120.92730480   180.89957278
 H     71  70  69     1.079496340892   120.96162650   179.28689964
 Zn    12  11  10     3.362227383744   134.98830380   146.15562019
 C     77  12  11     3.145965068147   170.95713213   183.53465433
 N     78  77  12     1.325721667621    32.05856724   141.35484141
 C     79  78  77     1.347525829066   117.99085117   166.26866168
 C     80  79  78     1.445773402024   117.11417930   177.78743786
 N     81  80  79     1.279811505652   122.72530458     5.58481316
 C     80  79  78     1.396374326604   122.29950069   358.89758348
 C     83  80  79     1.390224212133   119.25474350     0.14919322
 C     84  83  80     1.386573229224   118.10993648     1.01498127
 H     78  77  79     1.080097940004    85.71862714   192.84349240
 H     81  80  79     1.091208898424   116.01013659   185.80378038
 H     83  80  79     1.079521611641   120.36540190   180.92879613
 H     84  83  80     1.080154590788   120.92112522   180.89922964
 H     85  84  83     1.079452476953   120.96348381   179.28282600
 C     77  12  11     3.146246228444   114.51891573    61.95096038
 N     91  77  12     1.325684600499    32.05778232     2.37071282
 C     92  91  77     1.347587689169   117.99512816   166.30970846
 C     93  92  91     1.445714667561   117.11499943   177.78584384
 N     94  93  92     1.279789224834   122.72742638     5.56358324
 C     93  92  91     1.396419113304   122.29096099   358.89506877
 C     96  93  92     1.390182398105   119.26083352     0.15634035
 C     97  96  93     1.386617034368   118.10624812     1.01058503
 H     91  77  12     1.080090852660    85.71623819   195.17370547
 H     94  93  92     1.091254053830   116.00948308   185.77957252
 H     96  93  92     1.079582775891   120.36266358   180.92529642
 H     97  96  93     1.080132820536   120.92590857   180.88823711
 H     98  97  96     1.079402918284   120.95990029   179.28535819
 C     86  78  77     2.852283390549   128.86448699   328.01297096
 N    104  86  78     1.325715870766    66.45876465    70.71484066
 C    105 104  86     1.347551987865   117.99499909    85.53151310
 C    106 105 104     1.445688583340   117.11919469   177.77954427
 N    107 106 105     1.279738391235   122.72429695     5.57112146
 C    106 105 104     1.396432816143   122.29257168   358.88789682
 C    109 106 105     1.390209566936   119.25550927     0.15701711
 C    110 109 106     1.386462051410   118.11303471     1.01156767
 H    104  86  78     1.080090431399   104.70883081   317.37005502
 H    107 106 105     1.091220133612   116.01090302   185.78967439
 H    109 106 105     1.079548118427   120.36763127   180.92965391
 H    110 109 106     1.080266897577   120.91837690   180.89028679
 H    111 110 109     1.079428135635   120.96632642   179.27906604
 Zn    23  22  21     3.362251523905   134.97821447   146.15202980
 C    117  23  22     3.146362727023   103.51770432   136.35783784
 N    118 117  23     1.325717752766    32.05590612    78.98084243
 C    119 118 117     1.347538162725   117.99228194   166.33952536
 C    120 119 118     1.445685968667   117.11633635   177.79761734
 N    121 120 119     1.279751929086   122.73306174     5.53977826
 C    120 119 118     1.396396254650   122.29783709   358.89745959
 C    123 120 119     1.390263636869   119.25601741     0.15810300
 C    124 123 120     1.386585284070   118.10667358     1.00487516
 H    118 117  23     1.080124057690    85.71642100   271.75450086
 H    121 120 119     1.091225577046   116.00757713   185.75265057
 H    123 120 119     1.079575629588   120.36571344   180.92688849
 H    124 123 120     1.080196403438   120.91980378   180.88572608
 H    125 124 123     1.079378612907   120.96037519   179.29151704
 C    117  23  22     3.145942427954   170.94592884   183.58598242
 N    131 117 119     1.325613918153    32.06051421   170.50640114
 C    132 131 117     1.347592586801   117.99860597   166.28005270
 C    133 132 131     1.445685940998   117.11664082   177.77213035
 N    134 133 132     1.279719648986   122.72710119     5.57444082
 C    133 132 131     1.396411321925   122.29291445   358.88234241
 C    136 133 132     1.390307318545   119.25624312     0.16346339
 C    137 136 133     1.386515477735   118.10660511     1.01402206
 H    131 117 132     1.080078446225    85.72576284   192.83420202
 H    134 133 132     1.091185218008   116.01061530   185.79971611
 H    136 133 132     1.079543301586   120.36383241   180.92859396
 H    137 136 133     1.080131700303   120.91938920   180.89057298
 H    138 137 136     1.079495947190   120.96202465   179.28482484
 C    126 118 117     2.851310396993   128.90351675   328.07262390
 N    144 126 118     1.325688877527    66.48629789    70.64132843
 C    145 144 126     1.347636249141   117.99418554    85.49007943
 C    146 145 144     1.445715065288   117.11055865   177.77921787
 N    147 146 145     1.279728986934   122.72656636     5.59691271
 C    146 145 144     1.396309944103   122.29684488   358.88396938
 C    149 146 145     1.390273933439   119.25714316     0.15803211
 C    150 149 146     1.386586333410   118.11007912     1.01335910
 H    144 126 118     1.080096190161   104.74308515   317.29847993
 H    147 146 145     1.091236628784   116.01033723   185.82020330
 H    149 146 145     1.079576217782   120.36973235   180.92803034
 H    150 149 146     1.080192399529   120.92229050   180.89928730
 H    151 150 149     1.079348345068   120.96497405   179.27695205
 Zn    14  13  12     3.362361397887   134.99485214   146.17690950
 C    157  14  13     3.146162038103   114.52098584    61.95932976
 N    158 157  14     1.325579605305    32.06025875     2.34756130
 C    159 158 157     1.347558781649   118.00064843   166.32496073
 C    160 159 158     1.445620652177   117.12313902   177.80560845
 N    161 160 159     1.279791393157   122.72880009     5.55177000
 C    160 159 158     1.396434581354   122.29000722   358.90052072
 C    163 160 159     1.390239554897   119.25531529     0.15536181
 C    164 163 160     1.386473804296   118.11008722     0.99874018
 H    158 157  14     1.080118007442    85.71865192   195.13078212
 H    161 160 159     1.091299276092   116.01390339   185.76315380
 H    163 160 159     1.079504168589   120.36118768   180.91863515
 H    164 163 160     1.080220556183   120.91770484   180.89533570
 H    165 164 163     1.079558877505   120.95923137   179.29484592
 C    157  14  13     3.146156580655   103.51666792   136.35582442
 N    171 157  14     1.325672267191    32.05659386    79.00774765
 C    172 171 157     1.347575114790   117.99390976   166.27613545
 C    173 172 171     1.445671058713   117.11599367   177.77314525
 N    174 173 172     1.279820854651   122.72851127     5.57463331
 C    173 172 171     1.396382315127   122.29581508   358.88125725
 C    176 173 172     1.390300370424   119.25498780     0.16264040
 C    177 176 173     1.386477208612   118.10829082     1.01233544
 H    171 157  14     1.080148300003    85.72417845   271.85055568
 H    174 173 172     1.091226782113   116.01625667   185.80223103
 H    176 173 172     1.079512746567   120.36653971   180.93071040
 H    177 176 173     1.080185474814   120.91654932   180.89044442
 H    178 177 176     1.079446534109   120.96043842   179.27284866
 C    166 158 157     2.851185816463   128.91425533   328.09337450
 N    184 166 158     1.325594368576    66.49386818    70.61971747
 C    185 184 166     1.347491102011   118.00201804    85.52978314
 C    186 185 184     1.445694511299   117.12184170   177.77465753
 N    187 186 185     1.279790986841   122.72453560     5.58400321
 C    186 185 184     1.396412345978   122.29169707   358.88137201
 C    189 186 185     1.390263277225   119.25623906     0.15818826
 C    190 189 186     1.386514511284   118.10687102     1.01833047
 H    184 166 158     1.080088264912   104.70868404   317.25823563
 H    187 186 185     1.091281471482   116.01410536   185.81038949
 H    189 186 185     1.079552435040   120.36770724   180.93057273
 H    190 189 186     1.080213821426   120.92085896   180.89027017
 H    191 190 189     1.079534131003   120.96052027   179.27107123

---------------------------
INTERNAL COORDINATES (A.U.)
---------------------------
 C      0   0   0     0.000000000000     0.00000000     0.00000000
 C      1   0   0     2.630303397645     0.00000000     0.00000000
 C      2   1   0     2.636303586900   120.49001240     0.00000000
 C      3   2   1     2.630280921442   119.50773994   359.37679477
 C      4   3   2     2.636165525236   120.49207579     0.62663188
 C      5   4   3     2.630341371197   119.50799482   359.36458607
 H      2   1   3     2.036551340336   118.80564474   181.46305149
 H      4   3   2     2.036753130309   118.80490860   182.09145957
 H      6   5   4     2.036672485101   118.80910645   182.09915924
 C      1   2   3     7.508102826910   116.44791012   257.96100624
 C     10   1   2     2.630381706465    58.85697287   144.46547034
 C     11  10   1     2.636220143902   120.48823743   240.39190012
 C     12  11  10     2.630251615879   119.50635039   359.36023336
 C     13  12  11     2.636200711870   120.49133257     0.63505855
 C     14  13  12     2.630261934299   119.50727017   359.36930710
 H     11  10   1     2.036720877869   118.80584175    61.84399040
 H     13  12  11     2.036691219901   118.80455837   182.09207663
 H     15  14  13     2.036749360683   118.80537392   182.09645000
 C      7   2   1     5.807266444614   102.16930831   273.64325557
 C     19   7   2     2.630264059073   148.37164480    26.85670775
 C     20  19   7     2.636194500904   120.48598039   262.88251706
 C     21  20  19     2.630280833194   119.51346672   359.36421423
 C     22  21  20     2.636272898877   120.48601575     0.63777156
 C     23  22  21     2.630301150712   119.50683969   359.35999687
 H     20  19   7     2.036648191848   118.80852412    84.33958557
 H     22  21  20     2.036602611630   118.80892637   182.09772447
 H     24  23  22     2.036583034354   118.80177840   182.09504626
 C     17  13  12     5.807543633265   102.16870015   273.64548040
 C     28  17  13     2.630290886753   148.36385005    26.86140021
 C     29  28  17     2.636246321718   120.49173850   262.87992588
 C     30  29  28     2.630328717933   119.50197819   359.37793819
 C     31  30  29     2.636145611899   120.49721045     0.62846371
 C     32  31  30     2.630351791087   119.50386944   359.36414801
 H     29  28  17     2.036612886775   118.80817270    84.35096993
 H     31  30  29     2.036755707677   118.80560859   182.08869432
 H     33  32  31     2.036584305611   118.80971085   182.09870316
 Zn     1   2   3     6.354075395019    99.60297162   203.76540520
 C     37   1   2     5.945213360611   114.51730315   213.05009891
 N     38  37   1     2.505113516085    32.06144665     2.36284678
 C     39  38  37     2.546450442001   117.99597030   166.25876529
 C     40  39  38     2.732077464526   117.12105779   177.78056037
 N     41  40  39     2.418398163389   122.71697184     5.59023112
 C     40  39  38     2.638775478181   122.29600395   358.88975187
 C     43  40  39     2.627246031105   119.25588815     0.15619232
 C     44  43  40     2.620108044648   118.10665571     1.01515361
 H     38  37   1     2.041011253817    85.72177652   195.21698614
 H     41  40  39     2.062016744131   116.01757142   185.81017093
 H     43  40  39     2.040067928216   120.36835300   180.92587062
 H     44  43  40     2.041319012366   120.92526015   180.89811449
 H     45  44  43     2.039927466173   120.96526544   179.28063736
 C     37   1   2     5.945469486461   103.53859570   287.44733100
 N     51  37   1     2.505064000499    32.05993586    78.97996923
 C     52  51  37     2.546533783467   117.99614978   166.31240102
 C     53  52  51     2.731969307413   117.12057216   177.79645799
 N     54  53  52     2.418607532231   122.72646928     5.55530909
 C     53  52  51     2.638792962808   122.29442316   358.89256556
 C     56  53  52     2.627067033138   119.25579323     0.15613780
 C     57  56  53     2.620062276534   118.11259907     1.00870948
 H     51  37   1     2.041130812967    85.72025621   271.78509639
 H     54  53  52     2.062073841814   116.01425232   185.77585628
 H     56  53  52     2.040136133894   120.36285481   180.92572212
 H     57  56  53     2.041394593400   120.92158212   180.89454623
 H     58  57  56     2.039846517551   120.96492210   179.28999662
 C     46  38  37     5.389201810713   128.86313116   328.01355241
 N     64  46  38     2.505068925729    66.47417031    70.71360837
 C     65  64  46     2.546501578898   117.99535775    85.52265658
 C     66  65  64     2.732086150110   117.11813066   177.77858830
 N     67  66  65     2.418431675139   122.72303149     5.58270755
 C     66  65  64     2.638702804766   122.29574493   358.88908340
 C     69  66  65     2.627228714296   119.25793697     0.15284905
 C     70  69  66     2.620210202248   118.10431782     1.02116211
 H     64  46  38     2.041240095818   104.71751454   317.36429312
 H     67  66  65     2.062007435517   116.01424549   185.80459828
 H     69  66  65     2.040073118334   120.36545700   180.92491573
 H     70  69  66     2.041154283074   120.92730480   180.89957278
 H     71  70  69     2.039952446857   120.96162650   179.28689964
 Zn    12  11  10     6.353688955247   134.98830380   146.15562019
 C     77  12  11     5.945012405680   170.95713213   183.53465433
 N     78  77  12     2.505250881609    32.05856724   141.35484141
 C     79  78  77     2.546454775320   117.99085117   166.26866168
 C     80  79  78     2.732115781533   117.11417930   177.78743786
 N     81  80  79     2.418493248724   122.72530458     5.58481316
 C     80  79  78     2.638765057721   122.29950069   358.89758348
 C     83  80  79     2.627143025677   119.25474350     0.14919322
 C     84  83  80     2.620243667860   118.10993648     1.01498127
 H     78  77  79     2.041089304419    85.71862714   192.84349240
 H     81  80  79     2.062085972919   116.01013659   185.80378038
 H     83  80  79     2.040000201651   120.36540190   180.92879613
 H     84  83  80     2.041196358887   120.92112522   180.89922964
 H     85  84  83     2.039869556024   120.96348381   179.28282600
 C     77  12  11     5.945543721642   114.51891573    61.95096038
 N     91  77  12     2.505180834900    32.05778232     2.37071282
 C     92  91  77     2.546571673973   117.99512816   166.30970846
 C     93  92  91     2.732004789483   117.11499943   177.78584384
 N     94  93  92     2.418451144079   122.72742638     5.56358324
 C     93  92  91     2.638849692317   122.29096099   358.89506877
 C     96  93  92     2.627064008616   119.26083352     0.15634035
 C     97  96  93     2.620326447586   118.10624812     1.01058503
 H     91  77  12     2.041075911281    85.71623819   195.17370547
 H     94  93  92     2.062171304270   116.00948308   185.77957252
 H     96  93  92     2.040115785332   120.36266358   180.92529642
 H     97  96  93     2.041155219074   120.92590857   180.88823711
 H     98  97  96     2.039775903712   120.95990029   179.28535819
 C     86  78  77     5.390034464469   128.86448699   328.01297096
 N    104  86  78     2.505239927140    66.45876465    70.71484066
 C    105 104  86     2.546504208287   117.99499909    85.53151310
 C    106 105 104     2.731955497449   117.11919469   177.77954427
 N    107 106 105     2.418355082499   122.72429695     5.57112146
 C    106 105 104     2.638875586930   122.29257168   358.88789682
 C    109 106 105     2.627115350266   119.25550927     0.15701711
 C    110 109 106     2.620033572240   118.11303471     1.01156767
 H    104  86  78     2.041075115213   104.70883081   317.37005502
 H    107 106 105     2.062107204347   116.01090302   185.78967439
 H    109 106 105     2.040050292218   120.36763127   180.92965391
 H    110 109 106     2.041408587961   120.91837690   180.89028679
 H    111 110 109     2.039823557599   120.96632642   179.27906604
 Zn    23  22  21     6.353734573539   134.97821447   146.15202980
 C    117  23  22     5.945763872051   103.51770432   136.35783784
 N    118 117  23     2.505243483606    32.05590612    78.98084243
 C    119 118 117     2.546478082557   117.99228194   166.33952536
 C    120 119 118     2.731950556433   117.11633635   177.79761734
 N    121 120 119     2.418380665330   122.73306174     5.53977826
 C    120 119 118     2.638806495721   122.29783709   358.89745959
 C    123 120 119     2.627217527632   119.25601741     0.15810300
 C    124 123 120     2.620266448218   118.10667358     1.00487516
 H    118 117  23     2.041138659693    85.71642100   271.75450086
 H    121 120 119     2.062117490948   116.00757713   185.75265057
 H    123 120 119     2.040102280777   120.36571344   180.92688849
 H    124 123 120     2.041275373344   120.91980378   180.88572608
 H    125 124 123     2.039729973205   120.96037519   179.29151704
 C    117  23  22     5.944969621916   170.94592884   183.58598242
 N    131 117 119     2.505047264623    32.06051421   170.50640114
 C    132 131 117     2.546580929156   117.99860597   166.28005270
 C    133 132 131     2.731950504147   117.11664082   177.77213035
 N    134 133 132     2.418319664781   122.72710119     5.57444082
 C    133 132 131     2.638834968745   122.29291445   358.88234241
 C    136 133 132     2.627300074037   119.25624312     0.16346339
 C    137 136 133     2.620134533363   118.10660511     1.01402206
 H    131 117 132     2.041052466517    85.72576284   192.83420202
 H    134 133 132     2.062041223419   116.01061530   185.79971611
 H    136 133 132     2.040041189707   120.36383241   180.92859396
 H    137 136 133     2.041153102140   120.91938920   180.89057298
 H    138 137 136     2.039951702867   120.96202465   179.28482484
 C    126 118 117     5.388195773119   128.90351675   328.07262390
 N    144 126 118     2.505188917312    66.48629789    70.64132843
 C    145 144 126     2.546663439022   117.99418554    85.49007943
 C    146 145 144     2.732005541078   117.11055865   177.77921787
 N    147 146 145     2.418337310946   122.72656636     5.59691271
 C    146 145 144     2.638643392425   122.29684488   358.88396938
 C    149 146 145     2.627236985329   119.25714316     0.15803211
 C    150 149 146     2.620268431183   118.11007912     1.01335910
 H    144 126 118     2.041085997696   104.74308515   317.29847993
 H    147 146 145     2.062138375705   116.01033723   185.82020330
 H    149 146 145     2.040103392302   120.36973235   180.92803034
 H    150 149 146     2.041267807053   120.92229050   180.89928730
 H    151 150 149     2.039672775279   120.96497405   179.27695205
 Zn    14  13  12     6.353942205275   134.99485214   146.17690950
 C    157  14  13     5.945384624954   114.52098584    61.95932976
 N    158 157  14     2.504982422737    32.06025875     2.34756130
 C    159 158 157     2.546517046678   118.00064843   166.32496073
 C    160 159 158     2.731827126155   117.12313902   177.80560845
 N    161 160 159     2.418455241617   122.72880009     5.55177000
 C    160 159 158     2.638878922695   122.29000722   358.90052072
 C    163 160 159     2.627172019300   119.25531529     0.15536181
 C    164 163 160     2.620055781976   118.11008722     0.99874018
 H    158 157  14     2.041127226382    85.71865192   195.13078212
 H    161 160 159     2.062256761961   116.01390339   185.76315380
 H    163 160 159     2.039967239059   120.36118768   180.91863515
 H    164 163 160     2.041321015418   120.91770484   180.89533570
 H    165 164 163     2.040070623928   120.95923137   179.29484592
 C    157  14  13     5.945374311872   103.51666792   136.35582442
 N    171 157  14     2.505157528326    32.05659386    79.00774765
 C    172 171 157     2.546547911840   117.99390976   166.27613545
 C    173 172 171     2.731922380703   117.11599367   177.77314525
 N    174 173 172     2.418510915772   122.72851127     5.57463331
 C    173 172 171     2.638780153841   122.29581508   358.88125725
 C    176 173 172     2.627286943990   119.25498780     0.16264040
 C    177 176 173     2.620062215200   118.10829082     1.01233544
 H    171 157  14     2.041184471027    85.72417845   271.85055568
 H    174 173 172     2.062119768193   116.01625667   185.80223103
 H    176 173 172     2.039983449088   120.36653971   180.93071040
 H    177 176 173     2.041254721239   120.91654932   180.89044442
 H    178 177 176     2.039858325677   120.96043842   179.27284866
 C    166 158 157     5.387960350036   128.91425533   328.09337450
 N    184 166 158     2.505010321277    66.49386818    70.61971747
 C    185 184 166     2.546389150697   118.00201804    85.52978314
 C    186 185 184     2.731966699668   117.12184170   177.77465753
 N    187 186 185     2.418454473791   122.72453560     5.58400321
 C    186 185 184     2.638836903925   122.29169707   358.88137201
 C    189 186 185     2.627216848003   119.25623906     0.15818826
 C    190 189 186     2.620132707034   118.10687102     1.01833047
 H    184 166 158     2.041071021145   104.70868404   317.25823563
 H    187 186 185     2.062223116124   116.01410536   185.81038949
 H    189 186 185     2.040058449433   120.36770724   180.93057273
 H    190 189 186     2.041308288572   120.92085896   180.89027017
 H    191 190 189     2.040023859816   120.96052027   179.27107123

---------------------
BASIS SET INFORMATION
---------------------
There are 4 groups of distinct atoms

 Group   1 Type C   : 11s6p1d contracted to 5s3p1d pattern {62111/411/1}
 Group   2 Type H   : 4s1p contracted to 2s1p pattern {31/1}
 Group   3 Type Zn  : 17s11p6d contracted to 6s4p3d pattern {842111/6311/411}
 Group   4 Type N   : 11s6p2d contracted to 5s3p2d pattern {62111/411/11}

Atom   0C    basis set group =>   1
Atom   1C    basis set group =>   1
Atom   2C    basis set group =>   1
Atom   3C    basis set group =>   1
Atom   4C    basis set group =>   1
Atom   5C    basis set group =>   1
Atom   6H    basis set group =>   2
Atom   7H    basis set group =>   2
Atom   8H    basis set group =>   2
Atom   9C    basis set group =>   1
Atom  10C    basis set group =>   1
Atom  11C    basis set group =>   1
Atom  12C    basis set group =>   1
Atom  13C    basis set group =>   1
Atom  14C    basis set group =>   1
Atom  15H    basis set group =>   2
Atom  16H    basis set group =>   2
Atom  17H    basis set group =>   2
Atom  18C    basis set group =>   1
Atom  19C    basis set group =>   1
Atom  20C    basis set group =>   1
Atom  21C    basis set group =>   1
Atom  22C    basis set group =>   1
Atom  23C    basis set group =>   1
Atom  24H    basis set group =>   2
Atom  25H    basis set group =>   2
Atom  26H    basis set group =>   2
Atom  27C    basis set group =>   1
Atom  28C    basis set group =>   1
Atom  29C    basis set group =>   1
Atom  30C    basis set group =>   1
Atom  31C    basis set group =>   1
Atom  32C    basis set group =>   1
Atom  33H    basis set group =>   2
Atom  34H    basis set group =>   2
Atom  35H    basis set group =>   2
Atom  36Zn   basis set group =>   3
Atom  37C    basis set group =>   1
Atom  38N    basis set group =>   4
Atom  39C    basis set group =>   1
Atom  40C    basis set group =>   1
Atom  41N    basis set group =>   4
Atom  42C    basis set group =>   1
Atom  43C    basis set group =>   1
Atom  44C    basis set group =>   1
Atom  45H    basis set group =>   2
Atom  46H    basis set group =>   2
Atom  47H    basis set group =>   2
Atom  48H    basis set group =>   2
Atom  49H    basis set group =>   2
Atom  50C    basis set group =>   1
Atom  51N    basis set group =>   4
Atom  52C    basis set group =>   1
Atom  53C    basis set group =>   1
Atom  54N    basis set group =>   4
Atom  55C    basis set group =>   1
Atom  56C    basis set group =>   1
Atom  57C    basis set group =>   1
Atom  58H    basis set group =>   2
Atom  59H    basis set group =>   2
Atom  60H    basis set group =>   2
Atom  61H    basis set group =>   2
Atom  62H    basis set group =>   2
Atom  63C    basis set group =>   1
Atom  64N    basis set group =>   4
Atom  65C    basis set group =>   1
Atom  66C    basis set group =>   1
Atom  67N    basis set group =>   4
Atom  68C    basis set group =>   1
Atom  69C    basis set group =>   1
Atom  70C    basis set group =>   1
Atom  71H    basis set group =>   2
Atom  72H    basis set group =>   2
Atom  73H    basis set group =>   2
Atom  74H    basis set group =>   2
Atom  75H    basis set group =>   2
Atom  76Zn   basis set group =>   3
Atom  77C    basis set group =>   1
Atom  78N    basis set group =>   4
Atom  79C    basis set group =>   1
Atom  80C    basis set group =>   1
Atom  81N    basis set group =>   4
Atom  82C    basis set group =>   1
Atom  83C    basis set group =>   1
Atom  84C    basis set group =>   1
Atom  85H    basis set group =>   2
Atom  86H    basis set group =>   2
Atom  87H    basis set group =>   2
Atom  88H    basis set group =>   2
Atom  89H    basis set group =>   2
Atom  90C    basis set group =>   1
Atom  91N    basis set group =>   4
Atom  92C    basis set group =>   1
Atom  93C    basis set group =>   1
Atom  94N    basis set group =>   4
Atom  95C    basis set group =>   1
Atom  96C    basis set group =>   1
Atom  97C    basis set group =>   1
Atom  98H    basis set group =>   2
Atom  99H    basis set group =>   2
Atom 100H    basis set group =>   2
Atom 101H    basis set group =>   2
Atom 102H    basis set group =>   2
Atom 103C    basis set group =>   1
Atom 104N    basis set group =>   4
Atom 105C    basis set group =>   1
Atom 106C    basis set group =>   1
Atom 107N    basis set group =>   4
Atom 108C    basis set group =>   1
Atom 109C    basis set group =>   1
Atom 110C    basis set group =>   1
Atom 111H    basis set group =>   2
Atom 112H    basis set group =>   2
Atom 113H    basis set group =>   2
Atom 114H    basis set group =>   2
Atom 115H    basis set group =>   2
Atom 116Zn   basis set group =>   3
Atom 117C    basis set group =>   1
Atom 118N    basis set group =>   4
Atom 119C    basis set group =>   1
Atom 120C    basis set group =>   1
Atom 121N    basis set group =>   4
Atom 122C    basis set group =>   1
Atom 123C    basis set group =>   1
Atom 124C    basis set group =>   1
Atom 125H    basis set group =>   2
Atom 126H    basis set group =>   2
Atom 127H    basis set group =>   2
Atom 128H    basis set group =>   2
Atom 129H    basis set group =>   2
Atom 130C    basis set group =>   1
Atom 131N    basis set group =>   4
Atom 132C    basis set group =>   1
Atom 133C    basis set group =>   1
Atom 134N    basis set group =>   4
Atom 135C    basis set group =>   1
Atom 136C    basis set group =>   1
Atom 137C    basis set group =>   1
Atom 138H    basis set group =>   2
Atom 139H    basis set group =>   2
Atom 140H    basis set group =>   2
Atom 141H    basis set group =>   2
Atom 142H    basis set group =>   2
Atom 143C    basis set group =>   1
Atom 144N    basis set group =>   4
Atom 145C    basis set group =>   1
Atom 146C    basis set group =>   1
Atom 147N    basis set group =>   4
Atom 148C    basis set group =>   1
Atom 149C    basis set group =>   1
Atom 150C    basis set group =>   1
Atom 151H    basis set group =>   2
Atom 152H    basis set group =>   2
Atom 153H    basis set group =>   2
Atom 154H    basis set group =>   2
Atom 155H    basis set group =>   2
Atom 156Zn   basis set group =>   3
Atom 157C    basis set group =>   1
Atom 158N    basis set group =>   4
Atom 159C    basis set group =>   1
Atom 160C    basis set group =>   1
Atom 161N    basis set group =>   4
Atom 162C    basis set group =>   1
Atom 163C    basis set group =>   1
Atom 164C    basis set group =>   1
Atom 165H    basis set group =>   2
Atom 166H    basis set group =>   2
Atom 167H    basis set group =>   2
Atom 168H    basis set group =>   2
Atom 169H    basis set group =>   2
Atom 170C    basis set group =>   1
Atom 171N    basis set group =>   4
Atom 172C    basis set group =>   1
Atom 173C    basis set group =>   1
Atom 174N    basis set group =>   4
Atom 175C    basis set group =>   1
Atom 176C    basis set group =>   1
Atom 177C    basis set group =>   1
Atom 178H    basis set group =>   2
Atom 179H    basis set group =>   2
Atom 180H    basis set group =>   2
Atom 181H    basis set group =>   2
Atom 182H    basis set group =>   2
Atom 183C    basis set group =>   1
Atom 184N    basis set group =>   4
Atom 185C    basis set group =>   1
Atom 186C    basis set group =>   1
Atom 187N    basis set group =>   4
Atom 188C    basis set group =>   1
Atom 189C    basis set group =>   1
Atom 190C    basis set group =>   1
Atom 191H    basis set group =>   2
Atom 192H    basis set group =>   2
Atom 193H    basis set group =>   2
Atom 194H    basis set group =>   2
Atom 195H    basis set group =>   2
---------------------------------
AUXILIARY/J BASIS SET INFORMATION
---------------------------------
There are 4 groups of distinct atoms

 Group   1 Type C   : 12s5p4d2f1g contracted to 6s4p3d1f1g pattern {711111/2111/211/2/1}
 Group   2 Type H   : 5s2p1d contracted to 3s1p1d pattern {311/2/1}
 Group   3 Type Zn  : 19s5p5d3f3g contracted to 8s5p5d2f3g pattern {121111111/11111/11111/21/111}
 Group   4 Type N   : 12s5p4d2f1g contracted to 6s4p3d1f1g pattern {711111/2111/211/2/1}

Atom   0C    basis set group =>   1
Atom   1C    basis set group =>   1
Atom   2C    basis set group =>   1
Atom   3C    basis set group =>   1
Atom   4C    basis set group =>   1
Atom   5C    basis set group =>   1
Atom   6H    basis set group =>   2
Atom   7H    basis set group =>   2
Atom   8H    basis set group =>   2
Atom   9C    basis set group =>   1
Atom  10C    basis set group =>   1
Atom  11C    basis set group =>   1
Atom  12C    basis set group =>   1
Atom  13C    basis set group =>   1
Atom  14C    basis set group =>   1
Atom  15H    basis set group =>   2
Atom  16H    basis set group =>   2
Atom  17H    basis set group =>   2
Atom  18C    basis set group =>   1
Atom  19C    basis set group =>   1
Atom  20C    basis set group =>   1
Atom  21C    basis set group =>   1
Atom  22C    basis set group =>   1
Atom  23C    basis set group =>   1
Atom  24H    basis set group =>   2
Atom  25H    basis set group =>   2
Atom  26H    basis set group =>   2
Atom  27C    basis set group =>   1
Atom  28C    basis set group =>   1
Atom  29C    basis set group =>   1
Atom  30C    basis set group =>   1
Atom  31C    basis set group =>   1
Atom  32C    basis set group =>   1
Atom  33H    basis set group =>   2
Atom  34H    basis set group =>   2
Atom  35H    basis set group =>   2
Atom  36Zn   basis set group =>   3
Atom  37C    basis set group =>   1
Atom  38N    basis set group =>   4
Atom  39C    basis set group =>   1
Atom  40C    basis set group =>   1
Atom  41N    basis set group =>   4
Atom  42C    basis set group =>   1
Atom  43C    basis set group =>   1
Atom  44C    basis set group =>   1
Atom  45H    basis set group =>   2
Atom  46H    basis set group =>   2
Atom  47H    basis set group =>   2
Atom  48H    basis set group =>   2
Atom  49H    basis set group =>   2
Atom  50C    basis set group =>   1
Atom  51N    basis set group =>   4
Atom  52C    basis set group =>   1
Atom  53C    basis set group =>   1
Atom  54N    basis set group =>   4
Atom  55C    basis set group =>   1
Atom  56C    basis set group =>   1
Atom  57C    basis set group =>   1
Atom  58H    basis set group =>   2
Atom  59H    basis set group =>   2
Atom  60H    basis set group =>   2
Atom  61H    basis set group =>   2
Atom  62H    basis set group =>   2
Atom  63C    basis set group =>   1
Atom  64N    basis set group =>   4
Atom  65C    basis set group =>   1
Atom  66C    basis set group =>   1
Atom  67N    basis set group =>   4
Atom  68C    basis set group =>   1
Atom  69C    basis set group =>   1
Atom  70C    basis set group =>   1
Atom  71H    basis set group =>   2
Atom  72H    basis set group =>   2
Atom  73H    basis set group =>   2
Atom  74H    basis set group =>   2
Atom  75H    basis set group =>   2
Atom  76Zn   basis set group =>   3
Atom  77C    basis set group =>   1
Atom  78N    basis set group =>   4
Atom  79C    basis set group =>   1
Atom  80C    basis set group =>   1
Atom  81N    basis set group =>   4
Atom  82C    basis set group =>   1
Atom  83C    basis set group =>   1
Atom  84C    basis set group =>   1
Atom  85H    basis set group =>   2
Atom  86H    basis set group =>   2
Atom  87H    basis set group =>   2
Atom  88H    basis set group =>   2
Atom  89H    basis set group =>   2
Atom  90C    basis set group =>   1
Atom  91N    basis set group =>   4
Atom  92C    basis set group =>   1
Atom  93C    basis set group =>   1
Atom  94N    basis set group =>   4
Atom  95C    basis set group =>   1
Atom  96C    basis set group =>   1
Atom  97C    basis set group =>   1
Atom  98H    basis set group =>   2
Atom  99H    basis set group =>   2
Atom 100H    basis set group =>   2
Atom 101H    basis set group =>   2
Atom 102H    basis set group =>   2
Atom 103C    basis set group =>   1
Atom 104N    basis set group =>   4
Atom 105C    basis set group =>   1
Atom 106C    basis set group =>   1
Atom 107N    basis set group =>   4
Atom 108C    basis set group =>   1
Atom 109C    basis set group =>   1
Atom 110C    basis set group =>   1
Atom 111H    basis set group =>   2
Atom 112H    basis set group =>   2
Atom 113H    basis set group =>   2
Atom 114H    basis set group =>   2
Atom 115H    basis set group =>   2
Atom 116Zn   basis set group =>   3
Atom 117C    basis set group =>   1
Atom 118N    basis set group =>   4
Atom 119C    basis set group =>   1
Atom 120C    basis set group =>   1
Atom 121N    basis set group =>   4
Atom 122C    basis set group =>   1
Atom 123C    basis set group =>   1
Atom 124C    basis set group =>   1
Atom 125H    basis set group =>   2
Atom 126H    basis set group =>   2
Atom 127H    basis set group =>   2
Atom 128H    basis set group =>   2
Atom 129H    basis set group =>   2
Atom 130C    basis set group =>   1
Atom 131N    basis set group =>   4
Atom 132C    basis set group =>   1
Atom 133C    basis set group =>   1
Atom 134N    basis set group =>   4
Atom 135C    basis set group =>   1
Atom 136C    basis set group =>   1
Atom 137C    basis set group =>   1
Atom 138H    basis set group =>   2
Atom 139H    basis set group =>   2
Atom 140H    basis set group =>   2
Atom 141H    basis set group =>   2
Atom 142H    basis set group =>   2
Atom 143C    basis set group =>   1
Atom 144N    basis set group =>   4
Atom 145C    basis set group =>   1
Atom 146C    basis set group =>   1
Atom 147N    basis set group =>   4
Atom 148C    basis set group =>   1
Atom 149C    basis set group =>   1
Atom 150C    basis set group =>   1
Atom 151H    basis set group =>   2
Atom 152H    basis set group =>   2
Atom 153H    basis set group =>   2
Atom 154H    basis set group =>   2
Atom 155H    basis set group =>   2
Atom 156Zn   basis set group =>   3
Atom 157C    basis set group =>   1
Atom 158N    basis set group =>   4
Atom 159C    basis set group =>   1
Atom 160C    basis set group =>   1
Atom 161N    basis set group =>   4
Atom 162C    basis set group =>   1
Atom 163C    basis set group =>   1
Atom 164C    basis set group =>   1
Atom 165H    basis set group =>   2
Atom 166H    basis set group =>   2
Atom 167H    basis set group =>   2
Atom 168H    basis set group =>   2
Atom 169H    basis set group =>   2
Atom 170C    basis set group =>   1
Atom 171N    basis set group =>   4
Atom 172C    basis set group =>   1
Atom 173C    basis set group =>   1
Atom 174N    basis set group =>   4
Atom 175C    basis set group =>   1
Atom 176C    basis set group =>   1
Atom 177C    basis set group =>   1
Atom 178H    basis set group =>   2
Atom 179H    basis set group =>   2
Atom 180H    basis set group =>   2
Atom 181H    basis set group =>   2
Atom 182H    basis set group =>   2
Atom 183C    basis set group =>   1
Atom 184N    basis set group =>   4
Atom 185C    basis set group =>   1
Atom 186C    basis set group =>   1
Atom 187N    basis set group =>   4
Atom 188C    basis set group =>   1
Atom 189C    basis set group =>   1
Atom 190C    basis set group =>   1
Atom 191H    basis set group =>   2
Atom 192H    basis set group =>   2
Atom 193H    basis set group =>   2
Atom 194H    basis set group =>   2
Atom 195H    basis set group =>   2


           ************************************************************
           *        Program running with 32 parallel MPI-processes    *
           *              working on a common directory               *
           ************************************************************
------------------------------------------------------------------------------
                           ORCA GTO INTEGRAL CALCULATION
                           -- RI-GTO INTEGRALS CHOSEN --
------------------------------------------------------------------------------
------------------------------------------------------------------------------
                   ___                                                        
                  /   \      - P O W E R E D   B Y -                         
                 /     \                                                     
                 |  |  |   _    _      __       _____    __    __             
                 |  |  |  | |  | |    /  \     |  _  \  |  |  /  |          
                  \  \/   | |  | |   /    \    | | | |  |  | /  /          
                 / \  \   | |__| |  /  /\  \   | |_| |  |  |/  /          
                |  |  |   |  __  | /  /__\  \  |    /   |      \           
                |  |  |   | |  | | |   __   |  |    \   |  |\   \          
                \     /   | |  | | |  |  |  |  | |\  \  |  | \   \       
                 \___/    |_|  |_| |__|  |__|  |_| \__\ |__|  \__/        
                                                                              
                      - O R C A' S   B I G   F R I E N D -                    
                                      &                                       
                       - I N T E G R A L  F E E D E R -                       
                                                                              
 v1 FN, 2020, v2 2021                                                         
------------------------------------------------------------------------------


Reading SHARK input file Tetrahedron_l1_ald1_ORCA_DFT.SHARKINP.tmp ... ok
----------------------
SHARK INTEGRAL PACKAGE
----------------------

Number of atoms                             ...    196
Number of basis functions                   ...   2892
Number of shells                            ...   1372
Maximum angular momentum                    ...      2
Integral batch strategy                     ... SHARK/LIBINT Hybrid
RI-J (if used) integral strategy            ... SPLIT-RIJ (Revised 2003 algorithm where possible)
Printlevel                                  ...      1
Contraction scheme used                     ... SEGMENTED contraction
Coulomb Range Separation                    ... NOT USED
Exchange Range Separation                   ... NOT USED
Finite Nucleus Model                        ... NOT USED
Auxiliary Coulomb fitting basis             ... AVAILABLE
   # of basis functions in Aux-J            ...   7028
   # of shells in Aux-J                     ...   2252
   Maximum angular momentum in Aux-J        ...      4
Auxiliary J/K fitting basis                 ... NOT available
Auxiliary Correlation fitting basis         ... NOT available
Auxiliary 'external' fitting basis          ... NOT available
Integral threshold                          ...     2.500000e-11
Primitive cut-off                           ...     2.500000e-12
Primitive pair pre-selection threshold      ...     2.500000e-12

Calculating pre-screening integrals         ... done (  0.1 sec) Dimension = 1372
Organizing shell pair data                  ... done (  1.7 sec)
Shell pair information
Total number of shell pairs                 ...    941878
Shell pairs after pre-screening             ...    324841
Total number of primitive shell pairs       ...   3595632
Primitive shell pairs kept                  ...    645580
          la=0 lb=0:  92487 shell pairs
          la=1 lb=0: 126469 shell pairs
          la=1 lb=1:  43022 shell pairs
          la=2 lb=0:  34847 shell pairs
          la=2 lb=1:  24766 shell pairs
          la=2 lb=2:   3250 shell pairs

Calculating one electron integrals          ... done (  0.4 sec)
Calculating RI/J V-Matrix + Cholesky decomp.... done (  2.5 sec)
Calculating Nuclear repulsion               ... done (  0.0 sec) ENN=  35565.666297246287 Eh

SHARK setup successfully completed in   6.6 seconds

Maximum memory used throughout the entire GTOINT-calculation: 498.1 MB


           ************************************************************
           *        Program running with 32 parallel MPI-processes    *
           *              working on a common directory               *
[...]
 79 C      5.8355     6.0000     0.1645     3.6549     3.6549    -0.0000
 80 C      6.1570     6.0000    -0.1570     3.8925     3.8925     0.0000
 81 N      6.9459     7.0000     0.0541     2.9924     2.9924     0.0000
 82 C      6.0863     6.0000    -0.0863     3.7469     3.7469    -0.0000
 83 C      6.1055     6.0000    -0.1055     3.8478     3.8478    -0.0000
 84 C      6.0662     6.0000    -0.0662     3.7456     3.7456    -0.0000
 85 H      0.8410     1.0000     0.1590     0.9619     0.9619    -0.0000
 86 H      0.8390     1.0000     0.1610     0.9665     0.9665    -0.0000
 87 H      0.8160     1.0000     0.1840     0.9568     0.9568    -0.0000
 88 H      0.7957     1.0000     0.2043     0.9487     0.9487    -0.0000
 89 H      0.7944     1.0000     0.2056     0.9483     0.9483    -0.0000
 90 C      6.0427     6.0000    -0.0427     3.8554     3.8554     0.0000
 91 N      7.0274     7.0000    -0.0274     3.1790     3.1790     0.0000
 92 C      5.8356     6.0000     0.1644     3.6548     3.6548    -0.0000
 93 C      6.1570     6.0000    -0.1570     3.8926     3.8926     0.0000
 94 N      6.9455     7.0000     0.0545     2.9916     2.9916     0.0000
 95 C      6.0860     6.0000    -0.0860     3.7469     3.7469    -0.0000
 96 C      6.1056     6.0000    -0.1056     3.8479     3.8479    -0.0000
 97 C      6.0659     6.0000    -0.0659     3.7452     3.7452    -0.0000
 98 H      0.8411     1.0000     0.1589     0.9619     0.9619     0.0000
 99 H      0.8390     1.0000     0.1610     0.9665     0.9665     0.0000
100 H      0.8161     1.0000     0.1839     0.9568     0.9568    -0.0000
101 H      0.7956     1.0000     0.2044     0.9487     0.9487     0.0000
102 H      0.7944     1.0000     0.2056     0.9483     0.9483    -0.0000
103 C      6.0424     6.0000    -0.0424     3.8553     3.8553    -0.0000
104 N      7.0280     7.0000    -0.0280     3.1795     3.1795     0.0000
105 C      5.8340     6.0000     0.1660     3.6521     3.6521    -0.0000
106 C      6.1579     6.0000    -0.1579     3.8934     3.8934     0.0000
107 N      6.9451     7.0000     0.0549     2.9926     2.9926    -0.0000
108 C      6.0869     6.0000    -0.0869     3.7470     3.7470     0.0000
109 C      6.1053     6.0000    -0.1053     3.8476     3.8476    -0.0000
110 C      6.0664     6.0000    -0.0664     3.7458     3.7458    -0.0000
111 H      0.8410     1.0000     0.1590     0.9619     0.9619    -0.0000
112 H      0.8390     1.0000     0.1610     0.9665     0.9665     0.0000
113 H      0.8160     1.0000     0.1840     0.9568     0.9568     0.0000
114 H      0.7956     1.0000     0.2044     0.9487     0.9487     0.0000
115 H      0.7944     1.0000     0.2056     0.9483     0.9483    -0.0000
116 Zn    29.5667    30.0000     0.4333     2.5571     2.5571     0.0000
117 C      6.0426     6.0000    -0.0426     3.8555     3.8555     0.0000
118 N      7.0278     7.0000    -0.0278     3.1789     3.1789     0.0000
119 C      5.8351     6.0000     0.1649     3.6536     3.6536    -0.0000
120 C      6.1573     6.0000    -0.1573     3.8929     3.8929    -0.0000
121 N      6.9457     7.0000     0.0543     2.9917     2.9917     0.0000
122 C      6.0865     6.0000    -0.0865     3.7472     3.7472     0.0000
123 C      6.1054     6.0000    -0.1054     3.8476     3.8476     0.0000
124 C      6.0661     6.0000    -0.0661     3.7459     3.7459    -0.0000
125 H      0.8409     1.0000     0.1591     0.9619     0.9619     0.0000
126 H      0.8390     1.0000     0.1610     0.9665     0.9665    -0.0000
127 H      0.8160     1.0000     0.1840     0.9568     0.9568     0.0000
128 H      0.7956     1.0000     0.2044     0.9487     0.9487     0.0000
129 H      0.7944     1.0000     0.2056     0.9483     0.9483    -0.0000
130 C      6.0424     6.0000    -0.0424     3.8552     3.8552    -0.0000
131 N      7.0276     7.0000    -0.0276     3.1786     3.1786     0.0000
132 C      5.8352     6.0000     0.1648     3.6535     3.6535     0.0000
133 C      6.1578     6.0000    -0.1578     3.8928     3.8928     0.0000
134 N      6.9452     7.0000     0.0548     2.9920     2.9920    -0.0000
135 C      6.0863     6.0000    -0.0863     3.7465     3.7465    -0.0000
136 C      6.1054     6.0000    -0.1054     3.8478     3.8478    -0.0000
137 C      6.0662     6.0000    -0.0662     3.7458     3.7458     0.0000
138 H      0.8410     1.0000     0.1590     0.9619     0.9619    -0.0000
139 H      0.8389     1.0000     0.1611     0.9665     0.9665    -0.0000
140 H      0.8160     1.0000     0.1840     0.9568     0.9568     0.0000
141 H      0.7956     1.0000     0.2044     0.9487     0.9487    -0.0000
142 H      0.7943     1.0000     0.2057     0.9483     0.9483    -0.0000
143 C      6.0428     6.0000    -0.0428     3.8548     3.8548     0.0000
144 N      7.0277     7.0000    -0.0277     3.1783     3.1783     0.0000
145 C      5.8351     6.0000     0.1649     3.6541     3.6541     0.0000
146 C      6.1577     6.0000    -0.1577     3.8929     3.8929     0.0000
147 N      6.9447     7.0000     0.0553     2.9915     2.9915     0.0000
148 C      6.0862     6.0000    -0.0862     3.7467     3.7467     0.0000
149 C      6.1055     6.0000    -0.1055     3.8479     3.8479    -0.0000
150 C      6.0660     6.0000    -0.0660     3.7452     3.7452    -0.0000
151 H      0.8410     1.0000     0.1590     0.9619     0.9619    -0.0000
152 H      0.8390     1.0000     0.1610     0.9665     0.9665     0.0000
153 H      0.8160     1.0000     0.1840     0.9568     0.9568     0.0000
154 H      0.7956     1.0000     0.2044     0.9487     0.9487    -0.0000
155 H      0.7944     1.0000     0.2056     0.9483     0.9483    -0.0000
156 Zn    29.5657    30.0000     0.4343     2.5562     2.5562    -0.0000
157 C      6.0425     6.0000    -0.0425     3.8546     3.8546     0.0000
158 N      7.0279     7.0000    -0.0279     3.1783     3.1783     0.0000
159 C      5.8350     6.0000     0.1650     3.6532     3.6532    -0.0000
160 C      6.1573     6.0000    -0.1573     3.8930     3.8930     0.0000
161 N      6.9458     7.0000     0.0542     2.9926     2.9926     0.0000
162 C      6.0866     6.0000    -0.0866     3.7473     3.7473     0.0000
163 C      6.1054     6.0000    -0.1054     3.8477     3.8477    -0.0000
164 C      6.0662     6.0000    -0.0662     3.7454     3.7454     0.0000
165 H      0.8411     1.0000     0.1589     0.9619     0.9619     0.0000
166 H      0.8390     1.0000     0.1610     0.9665     0.9665     0.0000
167 H      0.8160     1.0000     0.1840     0.9568     0.9568    -0.0000
168 H      0.7956     1.0000     0.2044     0.9487     0.9487    -0.0000
169 H      0.7943     1.0000     0.2057     0.9483     0.9483     0.0000
170 C      6.0426     6.0000    -0.0426     3.8555     3.8555     0.0000
171 N      7.0282     7.0000    -0.0282     3.1790     3.1790     0.0000
172 C      5.8353     6.0000     0.1647     3.6544     3.6544     0.0000
173 C      6.1572     6.0000    -0.1572     3.8928     3.8928     0.0000
174 N      6.9461     7.0000     0.0539     2.9915     2.9915     0.0000
175 C      6.0865     6.0000    -0.0865     3.7471     3.7471     0.0000
176 C      6.1054     6.0000    -0.1054     3.8479     3.8479     0.0000
177 C      6.0662     6.0000    -0.0662     3.7461     3.7461    -0.0000
178 H      0.8409     1.0000     0.1591     0.9618     0.9618    -0.0000
179 H      0.8389     1.0000     0.1611     0.9665     0.9665     0.0000
180 H      0.8160     1.0000     0.1840     0.9568     0.9568     0.0000
181 H      0.7956     1.0000     0.2044     0.9487     0.9487     0.0000
182 H      0.7944     1.0000     0.2056     0.9483     0.9483    -0.0000
183 C      6.0423     6.0000    -0.0423     3.8552     3.8552     0.0000
184 N      7.0278     7.0000    -0.0278     3.1793     3.1793     0.0000
185 C      5.8345     6.0000     0.1655     3.6528     3.6528     0.0000
186 C      6.1577     6.0000    -0.1577     3.8930     3.8930     0.0000
187 N      6.9450     7.0000     0.0550     2.9917     2.9917    -0.0000
188 C      6.0865     6.0000    -0.0865     3.7469     3.7469     0.0000
189 C      6.1054     6.0000    -0.1054     3.8477     3.8477     0.0000
190 C      6.0663     6.0000    -0.0663     3.7458     3.7458     0.0000
191 H      0.8409     1.0000     0.1591     0.9619     0.9619     0.0000
192 H      0.8390     1.0000     0.1610     0.9665     0.9665     0.0000
193 H      0.8160     1.0000     0.1840     0.9568     0.9568     0.0000
194 H      0.7956     1.0000     0.2044     0.9487     0.9487    -0.0000
195 H      0.7944     1.0000     0.2056     0.9483     0.9483     0.0000

  Mayer bond orders larger than 0.100000
B(  0-C ,  1-C ) :   1.4784 B(  0-C ,  5-C ) :   1.1939 B(  0-C , 41-N ) :   0.7076 
B(  1-C ,  2-C ) :   1.1936 B(  1-C ,  6-H ) :   0.8733 B(  2-C ,  3-C ) :   1.4782 
B(  2-C ,121-N ) :   0.7063 B(  3-C ,  4-C ) :   1.1943 B(  3-C ,  7-H ) :   0.8733 
B(  4-C ,  5-C ) :   1.4771 B(  4-C , 81-N ) :   0.7071 B(  5-C ,  8-H ) :   0.8740 
B(  9-C , 10-C ) :   1.4787 B(  9-C , 14-C ) :   1.1938 B(  9-C , 67-N ) :   0.7078 
B( 10-C , 11-C ) :   1.1922 B( 10-C , 15-H ) :   0.8741 B( 11-C , 12-C ) :   1.4786 
B( 11-C , 94-N ) :   0.7072 B( 12-C , 13-C ) :   1.1932 B( 12-C , 16-H ) :   0.8735 
B( 13-C , 14-C ) :   1.4784 B( 13-C ,161-N ) :   0.7072 B( 14-C , 17-H ) :   0.8734 
B( 18-C , 19-C ) :   1.4798 B( 18-C , 23-C ) :   1.1942 B( 18-C , 54-N ) :   0.7066 
B( 19-C , 20-C ) :   1.1940 B( 19-C , 24-H ) :   0.8727 B( 20-C , 21-C ) :   1.4780 
B( 20-C ,174-N ) :   0.7064 B( 21-C , 22-C ) :   1.1941 B( 21-C , 25-H ) :   0.8738 
B( 22-C , 23-C ) :   1.4776 B( 22-C ,147-N ) :   0.7071 B( 23-C , 26-H ) :   0.8733 
B( 27-C , 28-C ) :   1.4788 B( 27-C , 32-C ) :   1.1937 B( 27-C ,107-N ) :   0.7076 
B( 28-C , 29-C ) :   1.1952 B( 28-C , 33-H ) :   0.8725 B( 29-C , 30-C ) :   1.4777 
B( 29-C ,134-N ) :   0.7077 B( 30-C , 31-C ) :   1.1933 B( 30-C , 34-H ) :   0.8738 
B( 31-C , 32-C ) :   1.4789 B( 31-C ,187-N ) :   0.7074 B( 32-C , 35-H ) :   0.8734 
B( 36-Zn, 38-N ) :   0.4628 B( 36-Zn, 41-N ) :   0.3431 B( 36-Zn, 51-N ) :   0.4629 
B( 36-Zn, 54-N ) :   0.3428 B( 36-Zn, 64-N ) :   0.4631 B( 36-Zn, 67-N ) :   0.3427 
B( 37-C , 38-N ) :   1.3809 B( 37-C , 44-C ) :   1.3208 B( 37-C , 45-H ) :   0.9329 
B( 38-N , 39-C ) :   1.2558 B( 39-C , 40-C ) :   0.9700 B( 39-C , 41-N ) :  -0.1112 
B( 39-C , 42-C ) :   1.3727 B( 40-C , 41-N ) :   1.8328 B( 40-C , 46-H ) :   0.9176 
B( 42-C , 43-C ) :   1.3432 B( 42-C , 47-H ) :   0.9096 B( 43-C , 44-C ) :   1.3718 
B( 43-C , 48-H ) :   0.9593 B( 44-C , 49-H ) :   0.9286 B( 50-C , 51-N ) :   1.3811 
B( 50-C , 57-C ) :   1.3211 B( 50-C , 58-H ) :   0.9328 B( 51-N , 52-C ) :   1.2557 
B( 52-C , 53-C ) :   0.9700 B( 52-C , 54-N ) :  -0.1112 B( 52-C , 55-C ) :   1.3726 
B( 53-C , 54-N ) :   1.8326 B( 53-C , 59-H ) :   0.9176 B( 55-C , 56-C ) :   1.3434 
B( 55-C , 60-H ) :   0.9095 B( 56-C , 57-C ) :   1.3718 B( 56-C , 61-H ) :   0.9593 
B( 57-C , 62-H ) :   0.9286 B( 63-C , 64-N ) :   1.3809 B( 63-C , 70-C ) :   1.3214 
B( 63-C , 71-H ) :   0.9327 B( 64-N , 65-C ) :   1.2556 B( 65-C , 66-C ) :   0.9703 
B( 65-C , 67-N ) :  -0.1110 B( 65-C , 68-C ) :   1.3726 B( 66-C , 67-N ) :   1.8321 
B( 66-C , 72-H ) :   0.9176 B( 68-C , 69-C ) :   1.3432 B( 68-C , 73-H ) :   0.9096 
B( 69-C , 70-C ) :   1.3718 B( 69-C , 74-H ) :   0.9594 B( 70-C , 75-H ) :   0.9285 
B( 76-Zn, 78-N ) :   0.4627 B( 76-Zn, 81-N ) :   0.3428 B( 76-Zn, 91-N ) :   0.4627 
B( 76-Zn, 94-N ) :   0.3430 B( 76-Zn,104-N ) :   0.4631 B( 76-Zn,107-N ) :   0.3431 
B( 77-C , 78-N ) :   1.3803 B( 77-C , 84-C ) :   1.3213 B( 77-C , 85-H ) :   0.9328 
B( 78-N , 79-C ) :   1.2562 B( 79-C , 80-C ) :   0.9703 B( 79-C , 81-N ) :  -0.1107 
B( 79-C , 82-C ) :   1.3726 B( 80-C , 81-N ) :   1.8321 B( 80-C , 86-H ) :   0.9176 
B( 82-C , 83-C ) :   1.3434 B( 82-C , 87-H ) :   0.9096 B( 83-C , 84-C ) :   1.3717 
B( 83-C , 88-H ) :   0.9593 B( 84-C , 89-H ) :   0.9286 B( 90-C , 91-N ) :   1.3808 
B( 90-C , 97-C ) :   1.3212 B( 90-C , 98-H ) :   0.9329 B( 91-N , 92-C ) :   1.2563 
B( 92-C , 93-C ) :   0.9704 B( 92-C , 94-N ) :  -0.1110 B( 92-C , 95-C ) :   1.3726 
B( 93-C , 94-N ) :   1.8319 B( 93-C , 99-H ) :   0.9176 B( 95-C , 96-C ) :   1.3435 
B( 95-C ,100-H ) :   0.9096 B( 96-C , 97-C ) :   1.3717 B( 96-C ,101-H ) :   0.9593 
B( 97-C ,102-H ) :   0.9285 B(103-C ,104-N ) :   1.3812 B(103-C ,110-C ) :   1.3212 
B(103-C ,111-H ) :   0.9327 B(104-N ,105-C ) :   1.2556 B(105-C ,106-C ) :   0.9701 
B(105-C ,107-N ) :  -0.1110 B(105-C ,108-C ) :   1.3721 B(106-C ,107-N ) :   1.8322 
B(106-C ,112-H ) :   0.9177 B(108-C ,109-C ) :   1.3434 B(108-C ,113-H ) :   0.9097 
B(109-C ,110-C ) :   1.3718 B(109-C ,114-H ) :   0.9593 B(110-C ,115-H ) :   0.9286 
B(116-Zn,118-N ) :   0.4626 B(116-Zn,121-N ) :   0.3430 B(116-Zn,131-N ) :   0.4628 
B(116-Zn,134-N ) :   0.3430 B(116-Zn,144-N ) :   0.4629 B(116-Zn,147-N ) :   0.3429 
B(117-C ,118-N ) :   1.3809 B(117-C ,124-C ) :   1.3216 B(117-C ,125-H ) :   0.9326 
B(118-N ,119-C ) :   1.2559 B(119-C ,120-C ) :   0.9700 B(119-C ,121-N ) :  -0.1111 
B(119-C ,122-C ) :   1.3727 B(120-C ,121-N ) :   1.8325 B(120-C ,126-H ) :   0.9177 
B(122-C ,123-C ) :   1.3433 B(122-C ,127-H ) :   0.9095 B(123-C ,124-C ) :   1.3718 
B(123-C ,128-H ) :   0.9594 B(124-C ,129-H ) :   0.9285 B(130-C ,131-N ) :   1.3808 
B(130-C ,137-C ) :   1.3212 B(130-C ,138-H ) :   0.9326 B(131-N ,132-C ) :   1.2559 
B(132-C ,133-C ) :   0.9701 B(132-C ,134-N ) :  -0.1111 B(132-C ,135-C ) :   1.3726 
B(133-C ,134-N ) :   1.8319 B(133-C ,139-H ) :   0.9178 B(135-C ,136-C ) :   1.3431 
B(135-C ,140-H ) :   0.9097 B(136-C ,137-C ) :   1.3719 B(136-C ,141-H ) :   0.9593 
B(137-C ,142-H ) :   0.9285 B(143-C ,144-N ) :   1.3806 B(143-C ,150-C ) :   1.3208 
B(143-C ,151-H ) :   0.9330 B(144-N ,145-C ) :   1.2554 B(145-C ,146-C ) :   0.9703 
B(145-C ,147-N ) :  -0.1110 B(145-C ,148-C ) :   1.3725 B(146-C ,147-N ) :   1.8322 
B(146-C ,152-H ) :   0.9177 B(148-C ,149-C ) :   1.3432 B(148-C ,153-H ) :   0.9096 
B(149-C ,150-C ) :   1.3719 B(149-C ,154-H ) :   0.9593 B(150-C ,155-H ) :   0.9286 
B(156-Zn,158-N ) :   0.4625 B(156-Zn,161-N ) :   0.3430 B(156-Zn,171-N ) :   0.4625 
B(156-Zn,174-N ) :   0.3426 B(156-Zn,184-N ) :   0.4631 B(156-Zn,187-N ) :   0.3430 
B(157-C ,158-N ) :   1.3806 B(157-C ,164-C ) :   1.3209 B(157-C ,165-H ) :   0.9330 
B(158-N ,159-C ) :   1.2558 B(159-C ,160-C ) :   0.9702 B(159-C ,161-N ) :  -0.1112 
B(159-C ,162-C ) :   1.3724 B(160-C ,161-N ) :   1.8323 B(160-C ,166-H ) :   0.9176 
B(162-C ,163-C ) :   1.3434 B(162-C ,167-H ) :   0.9097 B(163-C ,164-C ) :   1.3718 
B(163-C ,168-H ) :   0.9593 B(164-C ,169-H ) :   0.9285 B(170-C ,171-N ) :   1.3811 
B(170-C ,177-C ) :   1.3213 B(170-C ,178-H ) :   0.9326 B(171-N ,172-C ) :   1.2557 
B(172-C ,173-C ) :   0.9703 B(172-C ,174-N ) :  -0.1109 B(172-C ,175-C ) :   1.3728 
B(173-C ,174-N ) :   1.8322 B(173-C ,179-H ) :   0.9176 B(175-C ,176-C ) :   1.3433 
B(175-C ,180-H ) :   0.9095 B(176-C ,177-C ) :   1.3720 B(176-C ,181-H ) :   0.9593 
B(177-C ,182-H ) :   0.9285 B(183-C ,184-N ) :   1.3809 B(183-C ,190-C ) :   1.3212 
B(183-C ,191-H ) :   0.9327 B(184-N ,185-C ) :   1.2561 B(185-C ,186-C ) :   0.9699 
B(185-C ,187-N ) :  -0.1112 B(185-C ,188-C ) :   1.3724 B(186-C ,187-N ) :   1.8324 
B(186-C ,192-H ) :   0.9178 B(188-C ,189-C ) :   1.3433 B(188-C ,193-H ) :   0.9096 
B(189-C ,190-C ) :   1.3719 B(189-C ,194-H ) :   0.9593 B(190-C ,195-H ) :   0.9286 


-------
TIMINGS
-------

Total SCF time: 0 days 0 hours 5 min 8 sec 

Total time                  ....     308.779 sec
Sum of individual times     ....     294.293 sec  ( 95.3%)

Fock matrix formation       ....     210.635 sec  ( 68.2%)
  Split-RI-J                ....     116.190 sec  ( 55.2% of F)
  XC integration            ....      85.457 sec  ( 40.6% of F)
    Basis function eval.    ....       7.029 sec  (  8.2% of XC)
    Density eval.           ....      50.706 sec  ( 59.3% of XC)
    XC-Functional eval.     ....       1.772 sec  (  2.1% of XC)
    XC-Potential eval.      ....      14.859 sec  ( 17.4% of XC)
Diagonalization             ....      26.508 sec  (  8.6%)
Density matrix formation    ....       2.531 sec  (  0.8%)
Population analysis         ....      12.720 sec  (  4.1%)
Initial guess               ....       5.597 sec  (  1.8%)
Orbital Transformation      ....       0.000 sec  (  0.0%)
Orbital Orthonormalization  ....       0.000 sec  (  0.0%)
DIIS solution               ....      26.048 sec  (  8.4%)
Grid generation             ....      10.253 sec  (  3.3%)

Maximum memory used throughout the entire SCF-calculation: 1175.5 MB


-------------------------------------------------------------------------------
                          DFT DISPERSION CORRECTION                            
                                                                               
                                 DFTD4 V2.5                                    
-------------------------------------------------------------------------------
The R2SCAN3C composite method is recognized
Using three-body term ABC
Active option DFTDOPT                   ...         5   

Starting D4
-------------------------   ----------------
Dispersion correction           -0.161357109
-------------------------   ----------------

NOTIFICATION: Different basis set in ORCA and otool_gcp:
ORCA: 2892  gCP: 2884 
If you are NOT using ECPs, check your basis set inputs!
------------------   -----------------
gCP correction             0.117352017
------------------   -----------------

-------------------------   --------------------
FINAL SINGLE POINT ENERGY    -12129.181220856261
-------------------------   --------------------


                            ***************************************
                            *     ORCA property calculations      *
                            ***************************************

                                    ---------------------
                                    Active property flags
                                    ---------------------
   (+) Dipole Moment


------------------------------------------------------------------------------
                       ORCA ELECTRIC PROPERTIES CALCULATION
------------------------------------------------------------------------------

Dipole Moment Calculation                       ... on
Quadrupole Moment Calculation                   ... off
Polarizability Calculation                      ... off
GBWName                                         ... Tetrahedron_l1_ald1_ORCA_DFT.gbw
Electron density                                ... Tetrahedron_l1_ald1_ORCA_DFT.scfp
The origin for moment calculation is the CENTER OF MASS  = (-1.609530, -0.459361  1.266134)

-------------
DIPOLE MOMENT
-------------
                                X             Y             Z
Electronic contribution:     -0.00486       0.00225      -0.00793
Nuclear contribution   :      0.00630      -0.00245       0.01017
                        -----------------------------------------
Total Dipole Moment    :      0.00144      -0.00020       0.00224
                        -----------------------------------------
Magnitude (a.u.)       :      0.00267
Magnitude (Debye)      :      0.00678



--------------------
Rotational spectrum 
--------------------
 
Rotational constants in cm-1:     0.000373     0.000373     0.000373 
Rotational constants in MHz :    11.181838    11.181100    11.180489 

 Dipole components along the rotational axes: 
x,y,z [a.u.] :     0.002613    -0.000297    -0.000438 
x,y,z [Debye]:     0.006642    -0.000754    -0.001113 

 

Timings for individual modules:

Sum of individual times         ...      319.725 sec (=   5.329 min)
GTO integral calculation        ...        8.863 sec (=   0.148 min)   2.8 %
SCF iterations                  ...      310.862 sec (=   5.181 min)  97.2 %
                             ****ORCA TERMINATED NORMALLY****
TOTAL RUN TIME: 0 days 0 hours 5 minutes 27 seconds 881 msec
