
                                 *****************
                                 * O   R   C   A *
                                 *****************

                                            #,                                       
                                            ###                                      
                                            ####                                     
                                            #####                                    
                                            ######                                   
                                           ########,                                 
                                     ,,################,,,,,                         
                               ,,#################################,,                 
                          ,,##########################################,,             
                       ,#########################################, ''#####,          
                    ,#############################################,,   '####,        
                  ,##################################################,,,,####,       
                ,###########''''           ''''###############################       
              ,#####''   ,,,,##########,,,,          '''####'''          '####       
            ,##' ,,,,###########################,,,                        '##       
           ' ,,###''''                  '''############,,,                           
         ,,##''                                '''############,,,,        ,,,,,,###''
      ,#''                                            '''#######################'''  
     '                                                          ''''####''''         
             ,#######,   #######,   ,#######,      ##                                
            ,#'     '#,  ##    ##  ,#'     '#,    #''#        ######   ,####,        
            ##       ##  ##   ,#'  ##            #'  '#       #        #'  '#        
            ##       ##  #######   ##           ,######,      #####,   #    #        
            '#,     ,#'  ##    ##  '#,     ,#' ,#      #,         ##   #,  ,#        
             '#######'   ##     ##  '#######'  #'      '#     #####' # '####'        



                  #######################################################
                  #                        -***-                        #
                  #          Department of theory and spectroscopy      #
                  #    Directorship and core code : Frank Neese         #
                  #        Max Planck Institute fuer Kohlenforschung    #
                  #                Kaiser Wilhelm Platz 1               #
                  #                 D-45470 Muelheim/Ruhr               #
                  #                      Germany                        #
                  #                                                     #
                  #                  All rights reserved                #
                  #                        -***-                        #
                  #######################################################


                         Program Version 5.0.4 -  RELEASE  -


 With contributions from (in alphabetic order):
   Daniel Aravena         : Magnetic Suceptibility
   Michael Atanasov       : Ab Initio Ligand Field Theory (pilot matlab implementation)
   Alexander A. Auer      : GIAO ZORA, VPT2 properties, NMR spectrum
   Ute Becker             : Parallelization
   Giovanni Bistoni       : ED, misc. LED, open-shell LED, HFLD
   Martin Brehm           : Molecular dynamics
   Dmytro Bykov           : SCF Hessian
   Vijay G. Chilkuri      : MRCI spin determinant printing, contributions to CSF-ICE
   Dipayan Datta          : RHF DLPNO-CCSD density
   Achintya Kumar Dutta   : EOM-CC, STEOM-CC
   Dmitry Ganyushin       : Spin-Orbit,Spin-Spin,Magnetic field MRCI
   Miquel Garcia          : C-PCM and meta-GGA Hessian, CC/C-PCM, Gaussian charge scheme
   Yang Guo               : DLPNO-NEVPT2, F12-NEVPT2, CIM, IAO-localization
   Andreas Hansen         : Spin unrestricted coupled pair/coupled cluster methods
   Benjamin Helmich-Paris : MC-RPA, TRAH-SCF, COSX integrals
   Lee Huntington         : MR-EOM, pCC
   Robert Izsak           : Overlap fitted RIJCOSX, COSX-SCS-MP3, EOM
   Marcus Kettner         : VPT2
   Christian Kollmar      : KDIIS, OOCD, Brueckner-CCSD(T), CCSD density, CASPT2, CASPT2-K
   Simone Kossmann        : Meta GGA functionals, TD-DFT gradient, OOMP2, MP2 Hessian
   Martin Krupicka        : Initial AUTO-CI
   Lucas Lang             : DCDCAS
   Marvin Lechner         : AUTO-CI (C++ implementation), FIC-MRCC
   Dagmar Lenk            : GEPOL surface, SMD
   Dimitrios Liakos       : Extrapolation schemes; Compound Job, initial MDCI parallelization
   Dimitrios Manganas     : Further ROCIS development; embedding schemes
   Dimitrios Pantazis     : SARC Basis sets
   Anastasios Papadopoulos: AUTO-CI, single reference methods and gradients
   Taras Petrenko         : DFT Hessian,TD-DFT gradient, ASA, ECA, R-Raman, ABS, FL, XAS/XES, NRVS
   Peter Pinski           : DLPNO-MP2, DLPNO-MP2 Gradient
   Christoph Reimann      : Effective Core Potentials
   Marius Retegan         : Local ZFS, SOC
   Christoph Riplinger    : Optimizer, TS searches, QM/MM, DLPNO-CCSD(T), (RO)-DLPNO pert. Triples
   Tobias Risthaus        : Range-separated hybrids, TD-DFT gradient, RPA, STAB
   Michael Roemelt        : Original ROCIS implementation
   Masaaki Saitow         : Open-shell DLPNO-CCSD energy and density
   Barbara Sandhoefer     : DKH picture change effects
   Avijit Sen             : IP-ROCIS
   Kantharuban Sivalingam : CASSCF convergence, NEVPT2, FIC-MRCI
   Bernardo de Souza      : ESD, SOC TD-DFT
   Georgi Stoychev        : AutoAux, RI-MP2 NMR, DLPNO-MP2 response
   Willem Van den Heuvel  : Paramagnetic NMR
   Boris Wezisla          : Elementary symmetry handling
   Frank Wennmohs         : Technical directorship


 We gratefully acknowledge several colleagues who have allowed us to
 interface, adapt or use parts of their codes:
   Stefan Grimme, W. Hujo, H. Kruse, P. Pracht,  : VdW corrections, initial TS optimization,
                  C. Bannwarth, S. Ehlert          DFT functionals, gCP, sTDA/sTD-DF
   Ed Valeev, F. Pavosevic, A. Kumar             : LibInt (2-el integral package), F12 methods
   Garnet Chan, S. Sharma, J. Yang, R. Olivares  : DMRG
   Ulf Ekstrom                                   : XCFun DFT Library
   Mihaly Kallay                                 : mrcc  (arbitrary order and MRCC methods)
   Jiri Pittner, Ondrej Demel                    : Mk-CCSD
   Frank Weinhold                                : gennbo (NPA and NBO analysis)
   Christopher J. Cramer and Donald G. Truhlar   : smd solvation model
   Lars Goerigk                                  : TD-DFT with DH, B97 family of functionals
   V. Asgeirsson, H. Jonsson                     : NEB implementation
   FAccTs GmbH                                   : IRC, NEB, NEB-TS, DLPNO-Multilevel, CI-OPT
                                                   MM, QMMM, 2- and 3-layer-ONIOM, Crystal-QMMM,
                                                   LR-CPCM, SF, NACMEs, symmetry and pop. for TD-DFT,
                                                   nearIR, NL-DFT gradient (VV10), updates on ESD,
                                                   ML-optimized integration grids
   S Lehtola, MJT Oliveira, MAL Marques          : LibXC Library
   Liviu Ungur et al                             : ANISO software


 Your calculation uses the libint2 library for the computation of 2-el integrals
 For citations please refer to: http://libint.valeyev.net

 Your ORCA version has been built with support for libXC version: 5.1.0
 For citations please refer to: https://tddft.org/programs/libxc/

 This ORCA versions uses:
   CBLAS   interface :  Fast vector & matrix operations
   LAPACKE interface :  Fast linear algebra routines
   SCALAPACK package :  Parallel linear algebra routines
   Shared memory     :  Shared parallel matrices
   BLAS/LAPACK       :  OpenBLAS 0.3.15  USE64BITINT DYNAMIC_ARCH NO_AFFINITY Prescott SINGLE_THREADED
        Core in use  :  Prescott
   Copyright (c) 2011-2014, The OpenBLAS Project




***************************************
The coordinates will be read from file: /rds/user/pcpt3/hpc-work/CageConstruction/GreenawayCollab/Tetrahedrons_ORCA_DFT/Tetrahedron_l1_ald4_ORCA_DFT/Tetrahedron_l1_ald4_XTB.xyz
***************************************


Your calculation utilizes the geometrical counterpoise correction gCP
Please cite in your paper:
H.Kruse, S. Grimme J.Chem.Phys., 136, (2012), 154101 
   

Your calculation utilizes the atom-pairwise dispersion correction
based on tight binding partial charges (D4)
Cite in your paper:
E.Caldeweyher, C.Bannwarth, S.Grimme, J.Chem.Phys., (2017), 147, 034112.
E.Caldeweyher, S.Ehlert, A.Hansen, H.Neugebauer, S.Grimme, J.Chem.Phys., (2018), in progress.
   

================================================================================

----- Orbital basis set information -----
Your calculation utilizes the basis: def2-mTZVPP
   Stefan Grimme, Andreas Hansen, Sebastian Ehlert, and Jan-Michael Mewes 
   J. Chem. Phys. 154, 000000 (2021). DOI: 10.1063/5.0040021

----- AuxJ basis set information -----
Your calculation utilizes the auxiliary basis: def2/J
   F. Weigend, Phys. Chem. Chem. Phys. 8, 1057 (2006).

================================================================================
                                        WARNINGS
                       Please study these warnings very carefully!
================================================================================

Using LibXC functional ID 497 : Re-regularized SCAN exchange by Furness et al
[ 1]  J. W. Furness, A. D. Kaplan, J. Ning, J. P. Perdew, and J. Sun, J. Phys. Chem. Lett. 11, 8208 (2020)
[ 2]  J. W. Furness, A. D. Kaplan, J. Ning, J. P. Perdew, and J. Sun, J. Phys. Chem. Lett. 11, 9248 (2020)
Using LibXC functional ID 498 : Re-regularized SCAN correlation by Furness et al
[ 1]  J. W. Furness, A. D. Kaplan, J. Ning, J. P. Perdew, and J. Sun, J. Phys. Chem. Lett. 11, 8208 (2020)
[ 2]  J. W. Furness, A. D. Kaplan, J. Ning, J. P. Perdew, and J. Sun, J. Phys. Chem. Lett. 11, 9248 (2020)
Using LibXC functional ID 497 : Re-regularized SCAN exchange by Furness et al
[ 1]  J. W. Furness, A. D. Kaplan, J. Ning, J. P. Perdew, and J. Sun, J. Phys. Chem. Lett. 11, 8208 (2020)
[ 2]  J. W. Furness, A. D. Kaplan, J. Ning, J. P. Perdew, and J. Sun, J. Phys. Chem. Lett. 11, 9248 (2020)
Using LibXC functional ID 498 : Re-regularized SCAN correlation by Furness et al
[ 1]  J. W. Furness, A. D. Kaplan, J. Ning, J. P. Perdew, and J. Sun, J. Phys. Chem. Lett. 11, 8208 (2020)
[ 2]  J. W. Furness, A. D. Kaplan, J. Ning, J. P. Perdew, and J. Sun, J. Phys. Chem. Lett. 11, 9248 (2020)

INFO   : the flag for use of the SHARK integral package has been found!

================================================================================
                                       INPUT FILE
================================================================================
NAME = Tetrahedron_l1_ald4_ORCA_DFT.inp
|  1> ! r2SCAN-3c ENERGY TightSCF def2/J 
|  2> %PAL NPROCS 32 END 
|  3> %maxcore 5316 
|  4> 
|  5> *xyzfile 8 1 /rds/user/pcpt3/hpc-work/CageConstruction/GreenawayCollab/Tetrahedrons_ORCA_DFT/Tetrahedron_l1_ald4_ORCA_DFT/Tetrahedron_l1_ald4_XTB.xyz 
|  6> 
|  7>                          ****END OF INPUT****
================================================================================

                       ****************************
                       * Single Point Calculation *
                       ****************************

---------------------------------
CARTESIAN COORDINATES (ANGSTROEM)
---------------------------------
  C     -0.562500   -1.445100    2.909200
  C      0.793200   -1.594300    2.631700
  C      1.213300   -2.049300    1.382200
  C      0.265500   -2.369000    0.414300
  C     -1.095300   -2.223300    0.681900
  C     -1.503700   -1.768300    1.932200
  H      1.509300   -1.370400    3.405300
  H      0.602100   -2.748600   -0.536500
  H     -2.558900   -1.689200    2.136800
  C     -1.985600    2.268700    2.799700
  C     -2.755300    1.184600    2.388100
  C     -3.229400    1.110400    1.078800
  C     -2.939900    2.137500    0.185200
  C     -2.169500    3.228200    0.587000
  C     -1.701500    3.292300    1.896300
  H     -2.993400    0.415100    3.104200
  H     -3.337700    2.083000   -0.815000
  H     -1.133100    4.155100    2.202800
  C      1.935000    1.647200    3.058000
  C      1.420500    2.875200    2.652500
  C      1.723200    3.387000    1.391100
  C      2.557900    2.667400    0.541100
  C      3.078800    1.435900    0.937300
  C      2.770300    0.934400    2.198400
  H      0.801000    3.430400    3.337700
  H      2.808800    3.088000   -0.419000
  H      3.203800   -0.003700    2.504400
  C     -1.214000    0.427500   -2.282400
  C     -0.220000   -0.544700   -2.218100
  C      1.122500   -0.178500   -2.127400
  C      1.466400    1.170200   -2.116100
  C      0.478500    2.152400   -2.180100
  C     -0.858400    1.775800   -2.270400
  H     -0.505900   -1.583000   -2.259000
  H      2.509100    1.439800   -2.076400
  H     -1.610000    2.544100   -2.350100
  Zn    -0.363800    0.834900    5.367000
  C     -4.753500   -2.218500    8.827900
  C     -3.843700   -1.416000    7.991900
  C     -3.470900   -0.114800    8.349100
  C     -2.587400    0.599700    7.557500
  N     -2.049900    0.124100    6.437900
  C     -2.413700   -1.116400    6.057700
  C     -1.857700   -1.607400    4.816500
  N     -0.967900   -0.964000    4.160900
  C     -3.295200   -1.900200    6.796600
  H     -5.001000   -3.172600    8.372500
  H     -5.671700   -1.669700    9.038900
  H     -4.299800   -2.408500    9.802700
  H     -3.866000    0.331600    9.248700
  H     -2.300600    1.600400    7.845100
  H     -2.240600   -2.566000    4.462000
  H     -3.547500   -2.893400    6.455800
  C      4.119900   -1.215300    9.400300
  C      3.054800   -0.882300    8.438400
  C      1.712200   -1.186900    8.691700
  C      0.732100   -0.829900    7.780900
  N      0.982600   -0.198700    6.637400
  C      2.270500    0.082100    6.357300
  C      2.536600    0.729400    5.092100
  N      1.602300    1.135500    4.319000
  C      3.314400   -0.241900    7.219100
  H      3.975900   -0.658100   10.328400
  H      5.110200   -0.990800    9.015900
  H      4.071700   -2.266800    9.684400
  H      1.437100   -1.694400    9.603600
  H     -0.301700   -1.063300    7.988600
  H      3.587500    0.855000    4.825800
  H      4.329600    0.014200    6.954800
  C     -1.179400    5.988300    9.021200
  C     -0.852300    4.840800    8.157100
  C      0.049900    3.849100    8.559800
  C      0.309500    2.766300    7.736600
  N     -0.253500    2.594900    6.544000
  C     -1.105700    3.549300    6.121400
  C     -1.678800    3.375600    4.805400
  N     -1.496600    2.316700    4.111600
  C     -1.420800    4.667600    6.887800
  H     -1.822100    6.709800    8.526000
  H     -0.272700    6.486800    9.364900
  H     -1.682000    5.644800    9.927800
  H      0.539700    3.923000    9.518700
  H      1.002000    2.003000    8.059300
  H     -2.281500    4.203700    4.428200
  H     -2.118600    5.400000    6.509700
  Zn    -3.800600   -1.367600   -1.114100
  C     -3.729800   -6.917400   -4.239400
  C     -3.688300   -5.573400   -3.637300
  C     -4.493700   -4.530100   -4.108800
  C     -4.454100   -3.287700   -3.498200
  N     -3.674200   -3.000800   -2.459900
  C     -2.869300   -3.980500   -2.003800
  C     -1.993800   -3.645700   -0.902900
  N     -2.052200   -2.520900   -0.297100
  C     -2.849000   -5.256000   -2.560700
  H     -2.984400   -7.584000   -3.816300
  H     -3.595200   -6.863100   -5.320000
  H     -4.715000   -7.364700   -4.092800
  H     -5.154600   -4.695000   -4.945900
  H     -5.084300   -2.491100   -3.865100
  H     -1.271000   -4.409700   -0.611400
  H     -2.193700   -6.011100   -2.152400
  C     -8.875700   -3.375100    2.170800
  C     -7.629000   -3.024000    1.468600
  C     -7.095000   -3.839300    0.463800
  C     -5.939000   -3.462700   -0.199100
  N     -5.270700   -2.342800    0.061700
  C     -5.749400   -1.553500    1.043300
  C     -4.991600   -0.360600    1.348800
  N     -3.984300    0.009700    0.653100
  C     -6.904700   -1.859300    1.756900
  H     -9.714200   -3.372900    1.471300
  H     -9.103000   -2.687700    2.979900
  H     -8.828300   -4.391700    2.561800
  H     -7.589300   -4.761000    0.197800
  H     -5.538600   -4.095300   -0.977500
  H     -5.325400    0.215000    2.213900
  H     -7.254500   -1.188600    2.527700
  C     -7.706400    0.994700   -5.556700
  C     -6.867100    0.540100   -4.434500
  C     -7.405900   -0.159900   -3.348500
  C     -6.583000   -0.601800   -2.326100
  N     -5.269000   -0.398600   -2.296800
  C     -4.729600    0.296200   -3.317600
  C     -3.307400    0.549500   -3.254500
  N     -2.559700    0.043500   -2.348700
  C     -5.486400    0.774400   -4.383400
  H     -7.152200    1.595300   -6.271600
  H     -8.564200    1.562400   -5.195100
  H     -8.128800    0.135900   -6.082300
  H     -8.465000   -0.363900   -3.310200
  H     -7.007200   -1.146900   -1.495800
  H     -2.898800    1.202900   -4.027300
  H     -5.005700    1.316900   -5.184100
  Zn     3.842300   -1.441900   -0.616600
  C      7.776300   -4.621000    3.255100
  C      6.923000   -3.762100    2.415600
  C      7.458200   -2.955600    1.404300
  C      6.624000   -2.185500    0.611400
  N      5.301500   -2.151100    0.748200
  C      4.763600   -2.898100    1.732300
  C      3.329700   -2.820100    1.900700
  N      2.577300   -2.178200    1.089800
  C      5.531600   -3.699800    2.571900
  H      7.218100   -5.113700    4.045400
  H      8.593600   -4.047300    3.692800
  H      8.256300   -5.387300    2.643000
  H      8.523900   -2.939100    1.235100
  H      7.045900   -1.571800   -0.170600
  H      2.916200   -3.341900    2.765500
  H      5.052500   -4.289200    3.339500
  C      4.143700   -6.273800   -4.756400
  C      4.017400   -5.251800   -3.702700
  C      4.787300   -5.299400   -2.534600
  C      4.667500   -4.304100   -1.579200
  N      3.840100   -3.269000   -1.692200
  C      3.068200   -3.214200   -2.795300
  C      2.141000   -2.108600   -2.888200
  N      2.124900   -1.153000   -2.038400
  C      3.128000   -4.173300   -3.802300
  H      3.416400   -6.140900   -5.551500
  H      4.044800   -7.276100   -4.339100
  H      5.143300   -6.240200   -5.194600
  H      5.483300   -6.109600   -2.380100
  H      5.270800   -4.346200   -0.684400
  H      1.446300   -2.130700   -3.729700
  H      2.496200   -4.079400   -4.673100
  C      8.898000    1.197500   -3.453000
  C      7.659000    0.599300   -2.925800
  C      7.198300   -0.647400   -3.365100
  C      6.047500   -1.195800   -2.824300
  N      5.317500   -0.600400   -1.885500
  C      5.724900    0.613100   -1.464700
  C      4.900400    1.271100   -0.475800
  N      3.899900    0.696500    0.076000
  C      6.869900    1.233200   -1.956600
  H      9.757000    0.577600   -3.188300
  H      9.068300    2.200100   -3.072700
  H      8.884200    1.221400   -4.543000
  H      7.745300   -1.188300   -4.122100
  H      5.703900   -2.161300   -3.165000
  H      5.177000    2.295700   -0.221200
  H      7.161300    2.202200   -1.579300
  Zn     0.087000    5.228300   -0.891200
  C     -4.425100    8.093200   -4.356500
  C     -3.345600    7.356600   -3.676200
  C     -1.999000    7.555400   -4.002900
  C     -1.007300    6.870700   -3.320700
  N     -1.249700    6.001600   -2.343600
  C     -2.539500    5.772400   -2.028000
  C     -2.794000    4.793900   -0.994400
  N     -1.855000    4.252600   -0.315400
  C     -3.594800    6.419300   -2.664600
  H     -5.411600    7.761100   -4.047700
  H     -4.335000    8.001900   -5.439200
  H     -4.340300    9.161700   -4.148400
  H     -1.730500    8.250700   -4.783400
  H      0.029000    7.036100   -3.575500
  H     -3.840200    4.536200   -0.820800
  H     -4.611900    6.209500   -2.368200
  C      0.525700   10.457900    2.719000
  C      0.284700    9.239000    1.927300
  C     -0.580900    9.234600    0.827200
  C     -0.759200    8.079500    0.084500
  N     -0.148600    6.928800    0.352500
  C      0.669700    6.899500    1.422700
  C      1.294900    5.632700    1.731000
  N      1.188300    4.611100    0.969100
  C      0.903500    8.016100    2.220100
  H      1.147800   10.270400    3.588900
  H     -0.415400   10.907300    3.036700
  H      1.014600   11.215400    2.103000
  H     -1.105700   10.136100    0.550300
  H     -1.424000    8.088000   -0.766600
  H      1.868900    5.590800    2.658400
  H      1.577000    7.945100    3.061300
  C      4.504800    7.644200   -4.792300
  C      3.584300    7.090300   -3.784100
  C      3.136000    7.852300   -2.698800
  C      2.244800    7.311200   -1.787400
  N      1.768700    6.072000   -1.868000
  C      2.205700    5.308700   -2.888900
  C      1.716000    3.949300   -2.942900
  N      0.818000    3.511100   -2.144600
  C      3.100100    5.776700   -3.847300
  H      5.385700    8.076800   -4.317300
  H      4.027900    8.470300   -5.323700
  H      4.816500    6.901900   -5.520800
  H      3.478600    8.868200   -2.575000
  H      1.899500    7.909400   -0.957100
  H      2.156800    3.307500   -3.707600
  H      3.412300    5.129500   -4.653500

----------------------------
CARTESIAN COORDINATES (A.U.)
----------------------------
  NO LB      ZA    FRAG     MASS         X           Y           Z
   0 C     6.0000    0    12.011   -1.062971   -2.730843    5.497591
   1 C     6.0000    0    12.011    1.498931   -3.012790    4.973192
   2 C     6.0000    0    12.011    2.292805   -3.872616    2.611979
   3 C     6.0000    0    12.011    0.501722   -4.476761    0.782914
   4 C     6.0000    0    12.011   -2.069817   -4.201428    1.288604
   5 C     6.0000    0    12.011   -2.841581   -3.341603    3.651329
   6 H     1.0000    0     1.008    2.852164   -2.589681    6.435084
   7 H     1.0000    0     1.008    1.137804   -5.194101   -1.013838
   8 H     1.0000    0     1.008   -4.835620   -3.192125    4.037967
   9 C     6.0000    0    12.011   -3.752240    4.287222    5.290666
  10 C     6.0000    0    12.011   -5.206762    2.238570    4.512855
  11 C     6.0000    0    12.011   -6.102682    2.098352    2.038637
  12 C     6.0000    0    12.011   -5.555606    4.039290    0.349977
  13 C     6.0000    0    12.011   -4.099761    6.100414    1.109269
  14 C     6.0000    0    12.011   -3.215369    6.221545    3.583488
  15 H     1.0000    0     1.008   -5.656706    0.784425    5.866088
  16 H     1.0000    0     1.008   -6.307339    3.936300   -1.540127
  17 H     1.0000    0     1.008   -2.141249    7.852001    4.162689
  18 C     6.0000    0    12.011    3.656620    3.112757    5.778783
  19 C     6.0000    0    12.011    2.684356    5.433341    5.012499
  20 C     6.0000    0    12.011    3.256376    6.400502    2.628798
  21 C     6.0000    0    12.011    4.833730    5.040655    1.022531
  22 C     6.0000    0    12.011    5.818089    2.713458    1.771240
  23 C     6.0000    0    12.011    5.235108    1.765760    4.154374
  24 H     1.0000    0     1.008    1.513671    6.482517    6.307339
  25 H     1.0000    0     1.008    5.307863    5.835474   -0.791795
  26 H     1.0000    0     1.008    6.054305   -0.006992    4.732630
  27 C     6.0000    0    12.011   -2.294128    0.807858   -4.313111
  28 C     6.0000    0    12.011   -0.415740   -1.029334   -4.191602
  29 C     6.0000    0    12.011    2.121218   -0.337316   -4.020203
  30 C     6.0000    0    12.011    2.771094    2.211358   -3.998849
  31 C     6.0000    0    12.011    0.904234    4.067447   -4.119792
  32 C     6.0000    0    12.011   -1.622141    3.355776   -4.290434
  33 H     1.0000    0     1.008   -0.956012   -2.991436   -4.268891
  34 H     1.0000    0     1.008    4.741512    2.720828   -3.923827
  35 H     1.0000    0     1.008   -3.042459    4.807652   -4.441045
  36 Zn   30.0000    0    65.380   -0.687482    1.577732   10.142160
  37 C     6.0000    0    12.011   -8.982813   -4.192357   16.682313
  38 C     6.0000    0    12.011   -7.263540   -2.675852   15.102502
  39 C     6.0000    0    12.011   -6.559050   -0.216941   15.777512
  40 C     6.0000    0    12.011   -4.889477    1.133269   14.281605
  41 N     7.0000    0    14.007   -3.873750    0.234515   12.165868
  42 C     6.0000    0    12.011   -4.561232   -2.109690   11.447394
  43 C     6.0000    0    12.011   -3.510544   -3.037546    9.101866
  44 N     7.0000    0    14.007   -1.829066   -1.821696    7.862961
  45 C     6.0000    0    12.011   -6.227026   -3.590858   12.843713
  46 H     1.0000    0     1.008   -9.450520   -5.995345   15.821732
  47 H     1.0000    0     1.008  -10.717960   -3.155276   17.081046
  48 H     1.0000    0     1.008   -8.125444   -4.551405   18.524418
  49 H     1.0000    0     1.008   -7.305681    0.626633   17.477510
  50 H     1.0000    0     1.008   -4.347504    3.024318   14.825090
  51 H     1.0000    0     1.008   -4.234120   -4.849037    8.431958
  52 H     1.0000    0     1.008   -6.703803   -5.467734   12.199694
  53 C     6.0000    0    12.011    7.785483   -2.296584   17.763993
  54 C     6.0000    0    12.011    5.772735   -1.667305   15.946265
  55 C     6.0000    0    12.011    3.235589   -2.242916   16.424933
  56 C     6.0000    0    12.011    1.383469   -1.568284   14.703770
  57 N     7.0000    0    14.007    1.856845   -0.375489   12.542868
  58 C     6.0000    0    12.011    4.290623    0.155147   12.013556
  59 C     6.0000    0    12.011    4.793479    1.378366    9.622674
  60 N     7.0000    0    14.007    3.027908    2.145784    8.161727
  61 C     6.0000    0    12.011    6.263308   -0.457125   13.642122
  62 H     1.0000    0     1.008    7.513362   -1.243629   19.517847
  63 H     1.0000    0     1.008    9.656878   -1.872341   17.037582
  64 H     1.0000    0     1.008    7.694398   -4.283631   18.300864
  65 H     1.0000    0     1.008    2.715725   -3.201952   18.148174
  66 H     1.0000    0     1.008   -0.570130   -2.009346   15.096266
  67 H     1.0000    0     1.008    6.779393    1.615716    9.119440
  68 H     1.0000    0     1.008    8.181758    0.026834   13.142667
  69 C     6.0000    0    12.011   -2.228743   11.316247   17.047597
  70 C     6.0000    0    12.011   -1.610614    9.147786   15.414685
  71 C     6.0000    0    12.011    0.094297    7.273745   16.175678
  72 C     6.0000    0    12.011    0.584870    5.227549   14.620055
  73 N     7.0000    0    14.007   -0.479046    4.903650   12.366368
  74 C     6.0000    0    12.011   -2.089470    6.707205   11.567770
  75 C     6.0000    0    12.011   -3.172472    6.378960    9.080890
  76 N     7.0000    0    14.007   -2.828164    4.377929    7.769798
  77 C     6.0000    0    12.011   -2.684923    8.820486   13.016056
  78 H     1.0000    0     1.008   -3.443270   12.679684   16.111805
  79 H     1.0000    0     1.008   -0.515328   12.258275   17.697096
  80 H     1.0000    0     1.008   -3.178519   10.667126   18.760823
  81 H     1.0000    0     1.008    1.019885    7.413396   17.987736
  82 H     1.0000    0     1.008    1.893506    3.785121   15.229870
  83 H     1.0000    0     1.008   -4.311410    7.943842    8.368085
  84 H     1.0000    0     1.008   -4.003574   10.204521   12.301550
  85 Zn   30.0000    0    65.380   -7.182093   -2.584389   -2.105344
  86 C     6.0000    0    12.011   -7.048301  -13.071992   -8.011305
  87 C     6.0000    0    12.011   -6.969877  -10.532200   -6.873501
  88 C     6.0000    0    12.011   -8.491862   -8.560648   -7.764507
  89 C     6.0000    0    12.011   -8.417029   -6.212853   -6.610640
  90 N     7.0000    0    14.007   -6.943232   -5.670690   -4.648537
  91 C     6.0000    0    12.011   -5.422191   -7.522055   -3.786633
  92 C     6.0000    0    12.011   -3.767736   -6.889375   -1.706234
  93 N     7.0000    0    14.007   -3.878096   -4.763811   -0.561438
  94 C     6.0000    0    12.011   -5.383830   -9.932401   -4.839022
  95 H     1.0000    0     1.008   -5.639699  -14.331683   -7.211762
  96 H     1.0000    0     1.008   -6.793943  -12.969379  -10.053343
  97 H     1.0000    0     1.008   -8.910059  -13.917266   -7.734271
  98 H     1.0000    0     1.008   -9.740782   -8.872264   -9.346396
  99 H     1.0000    0     1.008   -9.607935   -4.707497   -7.303980
 100 H     1.0000    0     1.008   -2.401842   -8.333125   -1.155379
 101 H     1.0000    0     1.008   -4.145492  -11.359333   -4.067447
 102 C     6.0000    0    12.011  -16.772642   -6.378015    4.102217
 103 C     6.0000    0    12.011  -14.416721   -5.714532    2.775252
 104 C     6.0000    0    12.011  -13.407607   -7.255226    0.876455
 105 C     6.0000    0    12.011  -11.223084   -6.543555   -0.376244
 106 N     7.0000    0    14.007   -9.960180   -4.427250    0.116596
 107 C     6.0000    0    12.011  -10.864791   -2.935690    1.971551
 108 C     6.0000    0    12.011   -9.432757   -0.681435    2.548863
 109 N     7.0000    0    14.007   -7.529236    0.018330    1.234180
 110 C     6.0000    0    12.011  -13.047992   -3.513568    3.320060
 111 H     1.0000    0     1.008  -18.357178   -6.373857    2.780354
 112 H     1.0000    0     1.008  -17.202177   -5.079017    5.631195
 113 H     1.0000    0     1.008  -16.683069   -8.299110    4.841100
 114 H     1.0000    0     1.008  -14.341699   -8.996986    0.373788
 115 H     1.0000    0     1.008  -10.466437   -7.738995   -1.847207
 116 H     1.0000    0     1.008  -10.063548    0.406291    4.183665
 117 H     1.0000    0     1.008  -13.709018   -2.246128    4.776661
 118 C     6.0000    0    12.011  -14.562985    1.879711  -10.500641
 119 C     6.0000    0    12.011  -12.976938    1.020641   -8.379991
 120 C     6.0000    0    12.011  -13.995123   -0.302167   -6.327748
 121 C     6.0000    0    12.011  -12.440067   -1.137237   -4.395692
 122 N     7.0000    0    14.007   -9.956967   -0.753245   -4.340323
 123 C     6.0000    0    12.011   -8.937649    0.559737   -6.269355
 124 C     6.0000    0    12.011   -6.250080    1.038405   -6.150114
 125 N     7.0000    0    14.007   -4.837132    0.082203   -4.438400
 126 C     6.0000    0    12.011  -10.367793    1.463404   -8.283426
 127 H     1.0000    0     1.008  -13.515699    3.014680  -11.851606
 128 H     1.0000    0     1.008  -16.183993    2.952508   -9.817316
 129 H     1.0000    0     1.008  -15.361206    0.256814  -11.493881
 130 H     1.0000    0     1.008  -15.996532   -0.687671   -6.255371
 131 H     1.0000    0     1.008  -13.241689   -2.167327   -2.826652
 132 H     1.0000    0     1.008   -5.477938    2.273152   -7.610494
 133 H     1.0000    0     1.008   -9.459402    2.488580   -9.796529
 134 Zn   30.0000    0    65.380    7.260895   -2.724796   -1.165205
 135 C     6.0000    0    12.011   14.695077   -8.732424    6.151248
 136 C     6.0000    0    12.011   13.082574   -7.109339    4.564822
 137 C     6.0000    0    12.011   14.093955   -5.585275    2.653742
 138 C     6.0000    0    12.011   12.517546   -4.129996    1.155379
 139 N     7.0000    0    14.007   10.018383   -4.064990    1.413893
 140 C     6.0000    0    12.011    9.001899   -5.476615    3.273573
 141 C     6.0000    0    12.011    6.292221   -5.329217    3.591802
 142 N     7.0000    0    14.007    4.870391   -4.116201    2.059424
 143 C     6.0000    0    12.011   10.453209   -6.991609    4.860187
 144 H     1.0000    0     1.008   13.640232   -9.663493    7.644698
 145 H     1.0000    0     1.008   16.239551   -7.648289    6.978381
 146 H     1.0000    0     1.008   15.602146  -10.180522    4.994546
 147 H     1.0000    0     1.008   16.107837   -5.554094    2.334001
 148 H     1.0000    0     1.008   13.314821   -2.970272   -0.322387
 149 H     1.0000    0     1.008    5.510819   -6.315276    5.226038
 150 H     1.0000    0     1.008    9.547841   -8.105413    6.310740
 151 C     6.0000    0    12.011    7.830458  -11.855764   -8.988293
 152 C     6.0000    0    12.011    7.591786   -9.924464   -6.997089
 153 C     6.0000    0    12.011    9.046686  -10.014415   -4.789700
 154 C     6.0000    0    12.011    8.820297   -8.133570   -2.984256
 155 N     7.0000    0    14.007    7.256737   -6.177515   -3.197795
 156 C     6.0000    0    12.011    5.798058   -6.073958   -5.282351
 157 C     6.0000    0    12.011    4.045904   -3.984677   -5.457907
 158 N     7.0000    0    14.007    4.015479   -2.178854   -3.852018
 159 C     6.0000    0    12.011    5.911063   -7.886394   -7.185306
 160 H     1.0000    0     1.008    6.456060  -11.604619  -10.490815
 161 H     1.0000    0     1.008    7.643564  -13.749836   -8.199711
 162 H     1.0000    0     1.008    9.719428  -11.792269   -9.816371
 163 H     1.0000    0     1.008   10.361935  -11.545471   -4.497737
 164 H     1.0000    0     1.008    9.960369   -8.213128   -1.293329
 165 H     1.0000    0     1.008    2.733111   -4.026439   -7.048112
 166 H     1.0000    0     1.008    4.717134   -7.708949   -8.830879
 167 C     6.0000    0    12.011   16.814783    2.262947   -6.525224
 168 C     6.0000    0    12.011   14.473412    1.132513   -5.528961
 169 C     6.0000    0    12.011   13.602816   -1.223409   -6.359117
 170 C     6.0000    0    12.011   11.428119   -2.259735   -5.337154
 171 N     7.0000    0    14.007   10.048619   -1.134592   -3.563079
 172 C     6.0000    0    12.011   10.818493    1.158591   -2.767882
 173 C     6.0000    0    12.011    9.260414    2.402031   -0.899132
 174 N     7.0000    0    14.007    7.369743    1.316194    0.143619
 175 C     6.0000    0    12.011   12.982230    2.330410   -3.697438
 176 H     1.0000    0     1.008   18.438058    1.091506   -6.025014
 177 H     1.0000    0     1.008   17.136604    4.157586   -5.806561
 178 H     1.0000    0     1.008   16.788705    2.308111   -8.585026
 179 H     1.0000    0     1.008   14.636496   -2.245562   -7.789640
 180 H     1.0000    0     1.008   10.778809   -4.084265   -5.980983
 181 H     1.0000    0     1.008    9.783112    4.338244   -0.418007
 182 H     1.0000    0     1.008   13.532896    4.161555   -2.984444
 183 Zn   30.0000    0    65.380    0.164406    9.880055   -1.684124
 184 C     6.0000    0    12.011   -8.362227   15.293932   -8.232592
 185 C     6.0000    0    12.011   -6.322268   13.901959   -6.947011
 186 C     6.0000    0    12.011   -3.777563   14.277637   -7.564385
 187 C     6.0000    0    12.011   -1.903521   12.983741   -6.275214
 188 N     7.0000    0    14.007   -2.361591   11.341380   -4.428762
 189 C     6.0000    0    12.011   -4.798960   10.908255   -3.832365
 190 C     6.0000    0    12.011   -5.279895    9.059158   -1.879144
 191 N     7.0000    0    14.007   -3.505442    8.036249   -0.596020
 192 C     6.0000    0    12.011   -6.793188   12.130719   -5.035364
 193 H     1.0000    0     1.008  -10.226442   14.666353   -7.649044
 194 H     1.0000    0     1.008   -8.191963   15.121400  -10.278598
 195 H     1.0000    0     1.008   -8.201978   17.313104   -7.839340
 196 H     1.0000    0     1.008   -3.270171   15.591563   -9.039316
 197 H     1.0000    0     1.008    0.054802   13.296302   -6.756716
 198 H     1.0000    0     1.008   -7.256926    8.572176   -1.551087
 199 H     1.0000    0     1.008   -8.715228   11.734254   -4.475249
 200 C     6.0000    0    12.011    0.993429   19.762567    5.138165
 201 C     6.0000    0    12.011    0.538005   17.459180    3.642069
 202 C     6.0000    0    12.011   -1.097742   17.450865    1.563181
 203 C     6.0000    0    12.011   -1.434680   15.268042    0.159682
 204 N     7.0000    0    14.007   -0.280813   13.093534    0.666128
 205 C     6.0000    0    12.011    1.265550   13.038165    2.688513
 206 C     6.0000    0    12.011    2.447006   10.644260    3.271116
 207 N     7.0000    0    14.007    2.245562    8.713716    1.831334
 208 C     6.0000    0    12.011    1.707368   15.148234    4.195381
 209 H     1.0000    0     1.008    2.169028   19.408243    6.782038
 210 H     1.0000    0     1.008   -0.784992   20.611810    5.738531
 211 H     1.0000    0     1.008    1.917316   21.194034    3.974094
 212 H     1.0000    0     1.008   -2.089470   19.154453    1.039916
 213 H     1.0000    0     1.008   -2.690970   15.284105   -1.448664
 214 H     1.0000    0     1.008    3.531709   10.565081    5.023648
 215 H     1.0000    0     1.008    2.980098   15.014063    5.785019
 216 C     6.0000    0    12.011    8.512838   14.445445   -9.056135
 217 C     6.0000    0    12.011    6.773345   13.398725   -7.150913
 218 C     6.0000    0    12.011    5.926181   14.838697   -5.099993
 219 C     6.0000    0    12.011    4.242057   13.816166   -3.377696
 220 N     7.0000    0    14.007    3.342359   11.474417   -3.530008
 221 C     6.0000    0    12.011    4.168169   10.031989   -5.459230
 222 C     6.0000    0    12.011    3.242770    7.463095   -5.561275
 223 N     7.0000    0    14.007    1.545796    6.635017   -4.052707
 224 C     6.0000    0    12.011    5.858340   10.916381   -7.270343
 225 H     1.0000    0     1.008   10.177498   15.262940   -8.158515
 226 H     1.0000    0     1.008    7.611628   16.006547  -10.060335
 227 H     1.0000    0     1.008    9.101866   13.042701  -10.432800
 228 H     1.0000    0     1.008    6.573601   16.758469   -4.866045
 229 H     1.0000    0     1.008    3.589535   14.946600   -1.808657
 230 H     1.0000    0     1.008    4.075761    6.250269   -7.006349
 231 H     1.0000    0     1.008    6.448312    9.693350   -8.793841

--------------------------------
INTERNAL COORDINATES (ANGSTROEM)
--------------------------------
 C      0   0   0     0.000000000000     0.00000000     0.00000000
 C      1   0   0     1.391829508237     0.00000000     0.00000000
 C      2   1   0     1.394546255956   120.46693695     0.00000000
 C      3   2   1     1.391892000121   119.52921114   359.29495295
 C      4   3   2     1.394494492639   120.46749978     0.69868311
 C      5   4   3     1.391785058836   119.53089879   359.30530699
 H      2   1   3     1.077676843956   118.80584620   181.17681425
 H      4   3   2     1.077690289462   118.79841875   181.88247761
 H      6   5   4     1.077759254194   118.80482117   181.87982237
 C      1   2   3     3.978632214719   116.29386274   257.81983004
 C     10   1   2     1.391806545465    58.59252540   145.03331242
 C     11  10   1     1.394468694521   120.47317150   240.51445758
 C     12  11  10     1.391856896380   119.52654025   359.31208428
 C     13  12  11     1.394484094567   120.47080623     0.69367874
 C     14  13  12     1.391904917730   119.52540494   359.29558320
 H     11  10   1     1.077785261543   118.80306025    61.69432841
 H     13  12  11     1.077782505889   118.79785665   181.86901849
 H     15  14  13     1.077703414674   118.79814254   181.87901837
 C      7   2   1     3.067205167575   102.43576335   273.44787844
 C     19   7   2     1.391806200590   148.18132259    28.03464391
 C     20  19   7     1.394523750246   120.47137207   262.06661653
 C     21  20  19     1.391778807857   119.52825703   359.30426741
 C     22  21  20     1.394597970743   120.46899751     0.69968042
 C     23  22  21     1.391778613861   119.52602584   359.29765567
 H     20  19   7     1.077741309406   118.80156261    83.24744200
 H     22  21  20     1.077797374278   118.80829062   181.87679871
 H     24  23  22     1.077770782681   118.79911343   181.88239362
 C     17  13  12     3.066601490249   102.46004128   273.42050422
 C     28  17  13     1.391884812044   148.16019383    28.09416229
 C     29  28  17     1.394501767658   120.47028789   262.03251583
 C     30  29  28     1.391900352037   119.52736594   359.30064465
 C     31  30  29     1.394546252370   120.46793761     0.69644198
 C     32  31  30     1.391863233224   119.52725010   359.30251380
 H     29  28  17     1.077719123891   118.79829792    83.20565233
 H     31  30  29     1.077721457520   118.79883130   181.86944467
 H     33  32  31     1.077747437946   118.80006746   181.88006463
 Zn    19   7   2     3.357944867028    65.74078595    94.95678637
 C     37  19   7     6.369501272470   164.02582173   338.72311110
 C     38  37  19     1.473308620079     5.72615535   244.31513443
 C     39  38  37     1.399890395710   121.73257272   247.21746349
 C     40  39  38     1.384815171783   120.23993329   178.38476051
 N     41  40  39     1.329889382618   123.68170144     0.23534065
 C     42  41  40     1.347494983293   117.23533983     1.07702849
 C     43  42  41     1.445957966194   116.80716985   178.03941828
 N     44  43  42     1.278874098573   122.46241273     6.36730035
 C     43  42  41     1.391890045945   122.65674072   358.92409719
 H     38  37  19     1.085795662176   110.51397245   354.80505862
 H     38  37  19     1.090318155402   116.37487338   229.31267359
 H     38  37  19     1.091869374055   106.38827484   112.32173398
 H     40  39  38     1.079192814098   119.97914352   358.90263571
 H     41  40  39     1.079985411939   119.68789965   180.41964063
 H     44  43  42     1.091419543530   116.24146406   186.42185297
 H     46  43  42     1.079928780059   119.88934106   180.69443850
 C     37  19   7     6.369803342333    91.79806714    72.25264084
 C     54  37  19     1.473288369600     5.71345591   256.92232469
 C     55  54  37     1.399827421506   121.73971540   247.10496304
 C     56  55  54     1.384774945614   120.24643464   178.38427570
 N     57  56  55     1.329945841003   123.68054432     0.23971508
 C     58  57  56     1.347587125198   117.23361908     1.06746936
 C     59  58  57     1.445869129624   116.81150288   178.04805868
 N     60  59  58     1.278873453474   122.45832836     6.34088579
 C     59  58  57     1.391906049272   122.65401122   358.92914523
 H     54  37  19     1.092051944735   106.32506035   124.43553007
 H     54  37  19     1.085752135618   110.56629387     6.97073461
 H     54  37  19     1.090269828987   116.37814629   241.38793664
 H     56  55  54     1.079258018270   119.97944390   358.90324872
 H     57  56  55     1.079980226671   119.68929776   180.42036002
 H     60  59  58     1.091366968531   116.24790132   186.39603669
 H     62  59  58     1.079848480112   119.88972515   180.69100282
 C     51  41  40     4.679098958133   178.16885168   274.09842959
 C     70  51  41     1.473234356781    34.44714295   253.02005934
 C     71  70  51     1.399857499891   121.74646395   270.44106939
 C     72  71  70     1.384740495544   120.24951858   178.38435931
 N     73  72  71     1.329902898711   123.67757852     0.23810504
 C     74  73  72     1.347484678948   117.23835745     1.06085405
 C     75  74  73     1.445846222805   116.81098637   178.04019349
 N     76  75  74     1.278993545723   122.46192790     6.32400514
 C     75  74  73     1.391851953334   122.65400906   358.93408326
 H     70  51  41     1.085747935757   111.51122041   351.66754049
 H     70  51  41     1.090292084719   135.01303705   197.58467419
 H     70  51  41     1.092026817436    78.66248917    97.12688532
 H     72  71  70     1.079284235037   119.97101081   358.89107942
 H     73  72  71     1.079962235451   119.68612009   180.42182271
 H     76  75  74     1.091456247405   116.24982171   186.37769384
 H     78  75  74     1.079951022038   119.89344940   180.68510951
 Zn    12  11  10     3.357910637584   135.25684089   145.80360616
 C     86  12  11     6.369677603301   164.05053392   338.24790779
 C     87  86  12     1.473289740682     5.71498709   244.34667557
 C     88  87  86     1.399805807961   121.73888243   247.12283759
 C     89  88  87     1.384903707844   120.24280968   178.38206645
 N     90  89  88     1.329895676360   123.67811401     0.23400027
 C     91  90  89     1.347480356072   117.23994316     1.07008163
 C     92  91  90     1.445881080864   116.81198718   178.03601273
 N     93  92  91     1.278897665961   122.45739742     6.34021266
 C     92  91  90     1.391923112101   122.65194604   358.93083179
 H     87  86  12     1.085813211377   110.56921532   354.33377832
 H     87  86  12     1.090303632022   116.37638257   228.74766485
 H     87  86  12     1.091873568688   106.32146250   111.79428549
 H     89  88  87     1.079220658624   119.98211910   358.89344732
 H     90  89  88     1.079971856115   119.68564772   180.41797402
 H     93  92  91     1.091378985504   116.25012660   186.39093735
 H     95  92  91     1.079955087029   119.88753146   180.68867711
 C     86  12  11     6.370028592557    91.79503993    71.88242904
 C    103  86  12     1.473301374465     5.69700839   256.82062783
 C    104 103  86     1.399818963295   121.74400532   246.99610327
 C    105 104 103     1.384774339017   120.24355536   178.38884300
 N    106 105 104     1.329968999639   123.68369721     0.24556266
 C    107 106 105     1.347474207545   117.23086200     1.05175689
 C    108 107 106     1.445891247639   116.80760025   178.03521134
 N    109 108 107     1.278973756572   122.46038559     6.31439941
 C    108 107 106     1.391925533209   122.65927742   358.94325495
 H    103  86  12     1.091964898703   106.30851731   124.16210831
 H    103  86  12     1.085737933389   110.58253565     6.72112685
 H    103  86  12     1.090230856287   116.37013804   241.11330508
 H    105 104 103     1.079175324032   119.97624685   358.90361565
 H    106 105 104     1.080004388880   119.68400294   180.41546363
 H    109 108 107     1.091391684960   116.25085818   186.36630119
 H    111 108 107     1.079968133789   119.88779690   180.68996260
 C    100  90  89     4.678431426237   178.13009493   274.06314112
 C    119 100  90     1.473234024179    34.44919658   253.11378764
 C    120 119 100     1.399893367368   121.73256425   270.43282287
 C    121 120 119     1.384825541359   120.23828494   178.38793795
 N    122 121 120     1.329941626539   123.68411878     0.23412322
 C    123 122 121     1.347491016668   117.23190576     1.06706496
 C    124 123 122     1.445958277406   116.80718624   178.03538026
 N    125 124 123     1.278892071287   122.45509945     6.32153819
 C    124 123 122     1.391887610405   122.65474545   358.93054071
 H    119 100  90     1.085790039556   111.35433004   351.97556125
 H    119 100  90     1.090347967394   135.14963987   198.03586606
 H    119 100  90     1.091885781572    78.74608134    97.50225600
 H    121 120 119     1.079247747276   119.98340487   358.89273452
 H    122 121 120     1.080035990141   119.68526288   180.41684403
 H    125 124 123     1.091377734792   116.24528695   186.38198767
 H    127 124 123     1.080045938838   119.88408167   180.69331665
 Zn     3   2   1     3.357942405700   135.24854285   145.78504953
 C    135   3   2     6.369701225332    91.80240978    71.94832450
 C    136 135   3     1.473292350486     5.72013251   256.96103757
 C    137 136 135     1.399860343034   121.74142723   247.13463897
 C    138 137 136     1.384786647827   120.24698017   178.37832045
 N    139 138 137     1.330001447368   123.67597369     0.24040472
 C    140 139 138     1.347515573194   117.23922204     1.06485471
 C    141 140 139     1.445860218002   116.80981521   178.04402082
 N    142 141 140     1.278944947994   122.45657380     6.34405219
 C    141 140 139     1.391932128374   122.65322775   358.92810946
 H    136 135   3     1.085778347546   110.57187629     6.95079781
 H    136 135   3     1.090271649636   116.38334443   241.36224836
 H    136 135   3     1.091916709278   106.32153021   124.40961394
 H    138 137 136     1.079174397398   119.97526506   358.89687131
 H    139 138 137     1.079884854973   119.69097038   180.41859185
 H    142 141 140     1.091392014814   116.24667572   186.40175911
 H    144 141 140     1.079879127495   119.88962437   180.68854560
 C    135   3   2     6.369932779080   106.65949105   161.72287506
 C    152 135   3     1.473336139515     5.71672904   329.34329303
 C    153 152 135     1.399810480029   121.73962273   247.11609552
 C    154 153 152     1.384833307658   120.24399469   178.38216776
 N    155 154 153     1.329959311408   123.68132232     0.22860965
 C    156 155 154     1.347465123853   117.23201987     1.07615338
 C    157 156 155     1.445918950011   116.81035905   178.04117651
 N    158 157 156     1.278902111188   122.46049517     6.34131699
 C    157 156 155     1.391940318404   122.65766428   358.92234040
 H    152 135   3     1.085730956545   110.57202407    79.26028147
 H    152 135   3     1.090195299018   116.38075360   313.66299659
 H    152 135   3     1.091947049998   106.30664601   196.71147309
 H    154 153 152     1.079217443336   119.97974415   358.89413328
 H    155 154 153     1.080004787026   119.68647402   180.41622484
 H    158 157 156     1.091429681656   116.24527623   186.38628956
 H    160 157 156     1.079944947671   119.88761382   180.68628774
 C    149 139 138     4.676905671488   178.10489666   274.92518612
 C    168 149 139     1.473398819057    34.45860642   252.23959480
 C    169 168 149     1.399817798858   121.73933041   270.43833142
 C    170 169 168     1.384755516328   120.24220535   178.38314846
 N    171 170 169     1.329942329577   123.67918181     0.23726189
 C    172 171 170     1.347453023300   117.23694389     1.06883848
 C    173 172 171     1.445920972944   116.80861048   178.03182762
 N    174 173 172     1.278924802324   122.46007699     6.34133912
 C    173 172 171     1.391946342357   122.65309759   358.93133838
 H    168 149 139     1.091889692231    78.76915485    96.76569516
 H    168 149 139     1.085742575383   111.28858012   351.20057854
 H    168 149 139     1.090349324758   135.20023973   197.31623158
 H    170 169 168     1.079273278646   119.97785528   358.89453226
 H    171 170 169     1.079966527259   119.68638218   180.41910194
 H    174 173 172     1.091390800768   116.24772511   186.40713288
 H    176 173 172     1.079921409178   119.88298220   180.69123509
 Zn    32  31  30     3.357930355144   135.24606940   145.78394617
 C    184  32  31     6.369851058698   106.60411433   161.70763032
 C    185 184  32     1.473332243589     5.69772862   329.30275386
 C    186 185 184     1.399852095759   121.73942099   247.07558760
 C    187 186 185     1.384803170129   120.24501773   178.39185456
 N    188 187 186     1.329968789107   123.67683284     0.24073958
 C    189 188 187     1.347486563940   117.23760289     1.05416434
 C    190 189 188     1.445877401442   116.80940941   178.05141101
 N    191 190 189     1.278971340570   122.45986671     6.32445636
 C    190 189 188     1.391904184921   122.65230409   358.94391505
 H    185 184  32     1.085739425461   110.56754391    79.37223030
 H    185 184  32     1.090271979829   116.36170071   313.80868663
 H    185 184  32     1.091874031196   106.34577527   196.85170283
 H    187 186 185     1.079219435518   119.97387224   358.90948263
 H    188 187 186     1.079906426502   119.68620492   180.42434435
 H    191 190 189     1.091366432506   116.24703215   186.37926517
 H    193 190 189     1.079982134111   119.88220459   180.68242255
 C    184  32  31     6.369828717477   164.06145457   338.10718904
 C    201 184  32     1.473291247514     5.69568653   244.40217470
 C    202 201 184     1.399822392306   121.73976501   247.06998032
 C    203 202 201     1.384792471817   120.24711621   178.38817353
 N    204 203 202     1.329949942667   123.67758207     0.24414303
 C    205 204 203     1.347516760564   117.23610462     1.04903941
 C    206 205 204     1.445927442855   116.80547203   178.05576878
 N    207 206 205     1.278875181556   122.46582001     6.31748931
 C    206 205 204     1.391870956662   122.65359652   358.94790942
 H    201 184  32     1.085767318536   110.59546861   354.12622531
 H    201 184  32     1.090212300426   116.36802775   228.50003838
 H    201 184  32     1.091918247856   106.29904757   111.56179934
 H    203 202 201     1.079254789195   119.97965891   358.90829145
 H    204 203 202     1.080001157407   119.69253069   180.41939910
 H    207 206 205     1.091467988537   116.24386425   186.36835309
 H    209 206 205     1.079935502704   119.88532710   180.68265430
 C    198 188 187     4.677945434697   178.07483549   274.32211783
 C    217 198 188     1.473293148019    34.44546554   252.88252414
 C    218 217 198     1.399818909717   121.73542621   270.42315454
 C    219 218 217     1.384802011119   120.24306839   178.39388664
 N    220 219 218     1.329956469212   123.68134160     0.23931109
 C    221 220 219     1.347528367048   117.23308502     1.06695812
 C    222 221 220     1.445922006887   116.80858208   178.03927047
 N    223 222 221     1.278947274128   122.45320551     6.33848748
 C    222 221 220     1.391943217233   122.65425194   358.93321979
 H    217 198 188     1.090299302944   135.33966287   198.35819541
 H    217 198 188     1.091906946585    78.87518489    97.70706874
 H    217 198 188     1.085761681954   111.12032731   352.07959354
 H    219 218 217     1.079237698563   119.97896812   358.91700834
 H    220 219 218     1.080033990206   119.68925307   180.41940103
 H    223 222 221     1.091319371220   116.24926747   186.39114377
 H    225 222 221     1.079951443353   119.88513548   180.69068515

---------------------------
INTERNAL COORDINATES (A.U.)
---------------------------
 C      0   0   0     0.000000000000     0.00000000     0.00000000
 C      1   0   0     2.630176595679     0.00000000     0.00000000
 C      2   1   0     2.635310504841   120.46693695     0.00000000
 C      3   2   1     2.630294688224   119.52921114   359.29495295
 C      4   3   2     2.635212686349   120.46749978     0.69868311
 C      5   4   3     2.630092598484   119.53089879   359.30530699
 H      2   1   3     2.036514095946   118.80584620   181.17681425
 H      4   3   2     2.036539504269   118.79841875   181.88247761
 H      6   5   4     2.036669828725   118.80482117   181.87982237
 C      1   2   3     7.518525273416   116.29386274   257.81983004
 C     10   1   2     2.630133202328    58.59252540   145.03331242
 C     11  10   1     2.635163934972   120.47317150   240.51445758
 C     12  11  10     2.630228351767   119.52654025   359.31208428
 C     13  12  11     2.635193036841   120.47080623     0.69367874
 C     14  13  12     2.630319098967   119.52540494   359.29558320
 H     11  10   1     2.036718975494   118.80306025    61.69432841
 H     13  12  11     2.036713768061   118.79785665   181.86901849
 H     15  14  13     2.036564307326   118.79814254   181.87901837
 C      7   2   1     5.796177763265   102.43576335   273.44787844
 C     19   7   2     2.630132550608   148.18132259    28.03464391
 C     20  19   7     2.635267975214   120.47137207   262.06661653
 C     21  20  19     2.630080785845   119.52825703   359.30426741
 C     22  21  20     2.635408231626   120.46899751     0.69968042
 C     23  22  21     2.630080419245   119.52602584   359.29765567
 H     20  19   7     2.036635917991   118.80156261    83.24744200
 H     22  21  20     2.036741865244   118.80829062   181.87679871
 H     24  23  22     2.036691614408   118.79911343   181.88239362
 C     17  13  12     5.795036978446   102.46004128   273.42050422
 C     28  17  13     2.630281104728   148.16019383    28.09416229
 C     29  28  17     2.635226434142   120.47028789   262.03251583
 C     30  29  28     2.630310471058   119.52736594   359.30064465
 C     31  30  29     2.635310498066   120.46793761     0.69644198
 C     32  31  30     2.630240326667   119.52725010   359.30251380
 H     29  28  17     2.036593993443   118.79829792    83.20565233
 H     31  30  29     2.036598403364   118.79883130   181.86944467
 H     33  32  31     2.036647499254   118.80006746   181.88006463
 Zn    19   7   2     6.345596171490    65.74078595    94.95678637
 C     37  19   7    12.036613014632   164.02582173   338.72311110
 C     38  37  19     2.784149802695     5.72615535   244.31513443
 C     39  38  37     2.645409465398   121.73257272   247.21746349
 C     40  39  38     2.616921420769   120.23993329   178.38476051
 N     41  40  39     2.513126721558   123.68170144     0.23534065
 C     42  41  40     2.546396485257   117.23533983     1.07702849
 C     43  42  41     2.732464557268   116.80716985   178.03941828
 N     44  43  42     2.416721806068   122.46241273     6.36730035
 C     43  42  41     2.630290995367   122.65674072   358.92409719
 H     38  37  19     2.051856438912   110.51397245   354.80505862
 H     38  37  19     2.060402712553   116.37487338   229.31267359
 H     38  37  19     2.063334090981   106.38827484   112.32173398
 H     40  39  38     2.039378864340   119.97914352   358.90263571
 H     41  40  39     2.040876657194   119.68789965   180.41964063
 H     44  43  42     2.062484034482   116.24146406   186.42185297
 H     46  43  42     2.040769638451   119.88934106   180.69443850
 C     37  19   7    12.037183843946    91.79806714    72.25264084
 C     54  37  19     2.784111534836     5.71345591   256.92232469
 C     55  54  37     2.645290461399   121.73971540   247.10496304
 C     56  55  54     2.616845404326   120.24643464   178.38427570
 N     57  56  55     2.513233412442   123.68054432     0.23971508
 C     58  57  56     2.546570608223   117.23361908     1.06746936
 C     59  58  57     2.732296680481   116.81150288   178.04805868
 N     60  59  58     2.416720587008   122.45832836     6.34088579
 C     59  58  57     2.630321237272   122.65401122   358.92914523
 H     54  37  19     2.063679099566   106.32506035   124.43553007
 H     54  37  19     2.051774185639   110.56629387     6.97073461
 H     54  37  19     2.060311388863   116.37814629   241.38793664
 H     56  55  54     2.039502082369   119.97944390   358.90324872
 H     57  56  55     2.040866858458   119.68929776   180.42036002
 H     60  59  58     2.062384682131   116.24790132   186.39603669
 H     62  59  58     2.040617893543   119.88972515   180.69100282
 C     51  41  40     8.842215584387   178.16885168   274.09842959
 C     70  51  41     2.784009465400    34.44714295   253.02005934
 C     71  70  51     2.645347301309   121.74646395   270.44106939
 C     72  71  70     2.616780303129   120.24951858   178.38435931
 N     73  72  71     2.513152263272   123.67757852     0.23810504
 C     74  73  72     2.546377012867   117.23835745     1.06085405
 C     75  74  73     2.732253392866   116.81098637   178.04019349
 N     76  75  74     2.416947528469   122.46192790     6.32400514
 C     75  74  73     2.630219010765   122.65400906   358.93408326
 H     70  51  41     2.051766249051   111.51122041   351.66754049
 H     70  51  41     2.060353446100   135.01303705   197.58467419
 H     70  51  41     2.063631615852    78.66248917    97.12688532
 H     72  71  70     2.039551624879   119.97101081   358.89107942
 H     73  72  71     2.040832859979   119.68612009   180.42182271
 H     76  75  74     2.062553394753   116.24982171   186.37769384
 H     78  75  74     2.040811669699   119.89344940   180.68510951
 Zn    12  11  10     6.345531487215   135.25684089   145.80360616
 C     86  12  11    12.036946231612   164.05053392   338.24790779
 C     87  86  12     2.784114125806     5.71498709   244.34667557
 C     88  87  86     2.645249617718   121.73888243   247.12283759
 C     89  88  87     2.617088729677   120.24280968   178.38206645
 N     90  89  88     2.513138615006   123.67811401     0.23400027
 C     91  90  89     2.546368843815   117.23994316     1.07008163
 C     92  91  90     2.732319265051   116.81198718   178.03601273
 N     93  92  91     2.416766341977   122.45739742     6.34021266
 C     92  91  90     2.630353481346   122.65194604   358.93083179
 H     87  86  12     2.051889602095   110.56921532   354.33377832
 H     87  86  12     2.060375267341   116.37638257   228.74766485
 H     87  86  12     2.063342017688   106.32146250   111.79428549
 H     89  88  87     2.039431482869   119.98211910   358.89344732
 H     90  89  88     2.040851040400   119.68564772   180.41797402
 H     93  92  91     2.062407390920   116.25012660   186.39093735
 H     95  92  91     2.040819351420   119.88753146   180.68867711
 C     86  12  11    12.037609505182    91.79503993    71.88242904
 C    103  86  12     2.784136110468     5.69700839   256.82062783
 C    104 103  86     2.645274477697   121.74400532   246.99610327
 C    105 104 103     2.616844258024   120.24355536   178.38884300
 N    106 105 104     2.513277175922   123.68369721     0.24556266
 C    107 106 105     2.546357224783   117.23086200     1.05175689
 C    108 107 106     2.732338477472   116.80760025   178.03521134
 N    109 108 107     2.416910132394   122.46038559     6.31439941
 C    108 107 106     2.630358056578   122.65927742   358.94325495
 H    103  86  12     2.063514606404   106.30851731   124.16210831
 H    103  86  12     2.051747347315   110.58253565     6.72112685
 H    103  86  12     2.060237741133   116.37013804   241.11330508
 H    105 104 103     2.039345812907   119.97624685   358.90361565
 H    106 105 104     2.040912518416   119.68400294   180.41546363
 H    109 108 107     2.062431389413   116.25085818   186.36630119
 H    111 108 107     2.040844006224   119.88779690   180.68996260
 C    100  90  89     8.840954131918   178.13009493   274.06314112
 C    119 100  90     2.784008836874    34.44919658   253.11378764
 C    120 119 100     2.645415081018   121.73256425   270.43282287
 C    121 120 119     2.616941016428   120.23828494   178.38793795
 N    122 121 120     2.513225448260   123.68411878     0.23412322
 C    123 122 121     2.546388989421   117.23190576     1.06706496
 C    124 123 122     2.732465145375   116.80718624   178.03538026
 N    125 124 123     2.416755769575   122.45509945     6.32153819
 C    124 123 122     2.630286392864   122.65474545   358.93054071
 H    119 100  90     2.051845813701   111.35433004   351.97556125
 H    119 100  90     2.060459049052   135.14963987   198.03586606
 H    119 100  90     2.063365096694    78.74608134    97.50225600
 H    121 120 119     2.039482673003   119.98340487   358.89273452
 H    122 121 120     2.040972236145   119.68526288   180.41684403
 H    125 124 123     2.062405027416   116.24528695   186.38198767
 H    127 124 123     2.040991036457   119.88408167   180.69331665
 Zn     3   2   1     6.345591520254   135.24854285   145.78504953
 C    135   3   2    12.036990870781    91.80240978    71.94832450
 C    136 135   3     2.784119057619     5.72013251   256.96103757
 C    137 136 135     2.645352674072   121.74142723   247.13463897
 C    138 137 136     2.616867518304   120.24698017   178.37832045
 N    139 138 137     2.513338493244   123.67597369     0.24040472
 C    140 139 138     2.546435394530   117.23922204     1.06485471
 C    141 140 139     2.732279839955   116.80981521   178.04402082
 N    142 141 140     2.416855692071   122.45657380     6.34405219
 C    141 140 139     2.630370519633   122.65322775   358.92810946
 H    136 135   3     2.051823719004   110.57187629     6.95079781
 H    136 135   3     2.060314829391   116.38334443   241.36224836
 H    136 135   3     2.063423541587   106.32153021   124.40961394
 H    138 137 136     2.039344061822   119.97526506   358.89687131
 H    139 138 137     2.040686632068   119.69097038   180.41859185
 H    142 141 140     2.062432012747   116.24667572   186.40175911
 H    144 141 140     2.040675808704   119.88962437   180.68854560
 C    135   3   2    12.037428443949   106.65949105   161.72287506
 C    152 135   3     2.784201806892     5.71672904   329.34329303
 C    153 152 135     2.645258446648   121.73962273   247.11609552
 C    154 153 152     2.616955692607   120.24399469   178.38216776
 N    155 154 153     2.513258867819   123.68132232     0.22860965
 C    156 155 154     2.546340059092   117.23201987     1.07615338
 C    157 156 155     2.732390827367   116.81035905   178.04117651
 N    158 157 156     2.416774742238   122.46049517     6.34131699
 C    157 156 155     2.630385996548   122.65766428   358.92234040
 H    152 135   3     2.051734162990   110.57202407    79.26028147
 H    152 135   3     2.060170547632   116.38075360   313.66299659
 H    152 135   3     2.063480877240   106.30664601   196.71147309
 H    154 153 152     2.039425406855   119.97974415   358.89413328
 H    155 154 153     2.040913270804   119.68647402   180.41622484
 H    158 157 156     2.062503192763   116.24527623   186.38628956
 H    160 157 156     2.040800190810   119.88761382   180.68628774
 C    149 139 138     8.838070873296   178.10489666   274.92518612
 C    168 149 139     2.784320254062    34.45860642   252.23959480
 C    169 168 149     2.645272277230   121.73933041   270.43833142
 C    170 169 168     2.616808688296   120.24220535   178.38314846
 N    171 170 169     2.513226776809   123.67918181     0.23726189
 C    172 171 170     2.546317192361   117.23694389     1.06883848
 C    173 172 171     2.732394650158   116.80861048   178.03182762
 N    174 173 172     2.416817622272   122.46007699     6.34133912
 C    173 172 171     2.630397380167   122.65309759   358.93133838
 H    168 149 139     2.063372486768    78.76915485    96.76569516
 H    168 149 139     2.051756119413   111.28858012   351.20057854
 H    168 149 139     2.060461614098   135.20023973   197.31623158
 H    170 169 168     2.039530920301   119.97785528   358.89453226
 H    171 170 169     2.040840970322   119.68638218   180.41910194
 H    174 173 172     2.062429718532   116.24772511   186.40713288
 H    176 173 172     2.040755709504   119.88298220   180.69123509
 Zn    32  31  30     6.345568748004   135.24606940   145.78394617
 C    184  32  31    12.037274014808   106.60411433   161.70763032
 C    185 184  32     2.784194444660     5.69772862   329.30275386
 C    186 185 184     2.645337088980   121.73942099   247.07558760
 C    187 186 185     2.616898740930   120.24501773   178.39185456
 N    188 187 186     2.513276778076   123.67683284     0.24073958
 C    189 188 187     2.546380574986   117.23760289     1.05416434
 C    190 189 188     2.732312311951   116.80940941   178.05141101
 N    191 190 189     2.416905566812   122.45986671     6.32445636
 C    190 189 188     2.630317714159   122.65230409   358.94391505
 H    185 184  32     2.051750166922   110.56754391    79.37223030
 H    185 184  32     2.060315453365   116.36170071   313.80868663
 H    185 184  32     2.063342891701   106.34577527   196.85170283
 H    187 186 185     2.039429171534   119.97387224   358.90948263
 H    188 187 186     2.040727396350   119.68620492   180.42434435
 H    191 190 189     2.062383669190   116.24703215   186.37926517
 H    193 190 189     2.040870462999   119.88220459   180.68242255
 C    184  32  31    12.037231796019   164.06145457   338.10718904
 C    201 184  32     2.784116973304     5.69568653   244.40217470
 C    202 201 184     2.645280957588   121.73976501   247.06998032
 C    203 202 201     2.616878524049   120.24711621   178.38817353
 N    204 203 202     2.513241163465   123.67758207     0.24414303
 C    205 204 203     2.546437638334   117.23610462     1.04903941
 C    206 205 204     2.732406876516   116.80547203   178.05576878
 N    207 206 205     2.416723852610   122.46582001     6.31748931
 C    206 205 204     2.630254921851   122.65359652   358.94790942
 H    201 184  32     2.051802877194   110.59546861   354.12622531
 H    201 184  32     2.060202675637   116.36802775   228.50003838
 H    201 184  32     2.063426449078   106.29904757   111.56179934
 H    203 202 201     2.039495980301   119.97965891   358.90829145
 H    204 203 202     2.040906411817   119.69253069   180.41939910
 H    207 206 205     2.062575582276   116.24386425   186.36835309
 H    209 206 205     2.040782342409   119.88532710   180.68265430
 C    198 188 187     8.840035741004   178.07483549   274.32211783
 C    217 198 188     2.784120564739    34.44546554   252.88252414
 C    218 217 198     2.645274376448   121.73542621   270.42315454
 C    219 218 217     2.616896550719   120.24306839   178.39388664
 N    220 219 218     2.513253496848   123.68134160     0.23931109
 C    221 220 219     2.546459571412   117.23308502     1.06695812
 C    222 221 220     2.732396604026   116.80858208   178.03927047
 N    223 222 221     2.416860087827   122.45320551     6.33848748
 C    222 221 220     2.630391474539   122.65425194   358.93321979
 H    217 198 188     2.060367086569   135.33966287   198.35819541
 H    217 198 188     2.063405092771    78.87518489    97.70706874
 H    217 198 188     2.051792225599   111.12032731   352.07959354
 H    219 218 217     2.039463683688   119.97896812   358.91700834
 H    220 219 218     2.040968456815   119.68925307   180.41940103
 H    223 222 221     2.062294736249   116.24926747   186.39114377
 H    225 222 221     2.040812465870   119.88513548   180.69068515

---------------------
BASIS SET INFORMATION
---------------------
There are 4 groups of distinct atoms

 Group   1 Type C   : 11s6p1d contracted to 5s3p1d pattern {62111/411/1}
 Group   2 Type H   : 4s1p contracted to 2s1p pattern {31/1}
 Group   3 Type Zn  : 17s11p6d contracted to 6s4p3d pattern {842111/6311/411}
 Group   4 Type N   : 11s6p2d contracted to 5s3p2d pattern {62111/411/11}

Atom   0C    basis set group =>   1
Atom   1C    basis set group =>   1
Atom   2C    basis set group =>   1
Atom   3C    basis set group =>   1
Atom   4C    basis set group =>   1
Atom   5C    basis set group =>   1
Atom   6H    basis set group =>   2
Atom   7H    basis set group =>   2
Atom   8H    basis set group =>   2
Atom   9C    basis set group =>   1
Atom  10C    basis set group =>   1
Atom  11C    basis set group =>   1
Atom  12C    basis set group =>   1
Atom  13C    basis set group =>   1
Atom  14C    basis set group =>   1
Atom  15H    basis set group =>   2
Atom  16H    basis set group =>   2
Atom  17H    basis set group =>   2
Atom  18C    basis set group =>   1
Atom  19C    basis set group =>   1
Atom  20C    basis set group =>   1
Atom  21C    basis set group =>   1
Atom  22C    basis set group =>   1
Atom  23C    basis set group =>   1
Atom  24H    basis set group =>   2
Atom  25H    basis set group =>   2
Atom  26H    basis set group =>   2
Atom  27C    basis set group =>   1
Atom  28C    basis set group =>   1
Atom  29C    basis set group =>   1
Atom  30C    basis set group =>   1
Atom  31C    basis set group =>   1
Atom  32C    basis set group =>   1
Atom  33H    basis set group =>   2
Atom  34H    basis set group =>   2
Atom  35H    basis set group =>   2
Atom  36Zn   basis set group =>   3
Atom  37C    basis set group =>   1
Atom  38C    basis set group =>   1
Atom  39C    basis set group =>   1
Atom  40C    basis set group =>   1
Atom  41N    basis set group =>   4
Atom  42C    basis set group =>   1
Atom  43C    basis set group =>   1
Atom  44N    basis set group =>   4
Atom  45C    basis set group =>   1
Atom  46H    basis set group =>   2
Atom  47H    basis set group =>   2
Atom  48H    basis set group =>   2
Atom  49H    basis set group =>   2
Atom  50H    basis set group =>   2
Atom  51H    basis set group =>   2
Atom  52H    basis set group =>   2
Atom  53C    basis set group =>   1
Atom  54C    basis set group =>   1
Atom  55C    basis set group =>   1
Atom  56C    basis set group =>   1
Atom  57N    basis set group =>   4
Atom  58C    basis set group =>   1
Atom  59C    basis set group =>   1
Atom  60N    basis set group =>   4
Atom  61C    basis set group =>   1
Atom  62H    basis set group =>   2
Atom  63H    basis set group =>   2
Atom  64H    basis set group =>   2
Atom  65H    basis set group =>   2
Atom  66H    basis set group =>   2
Atom  67H    basis set group =>   2
Atom  68H    basis set group =>   2
Atom  69C    basis set group =>   1
Atom  70C    basis set group =>   1
Atom  71C    basis set group =>   1
Atom  72C    basis set group =>   1
Atom  73N    basis set group =>   4
Atom  74C    basis set group =>   1
Atom  75C    basis set group =>   1
Atom  76N    basis set group =>   4
Atom  77C    basis set group =>   1
Atom  78H    basis set group =>   2
Atom  79H    basis set group =>   2
Atom  80H    basis set group =>   2
Atom  81H    basis set group =>   2
Atom  82H    basis set group =>   2
Atom  83H    basis set group =>   2
Atom  84H    basis set group =>   2
Atom  85Zn   basis set group =>   3
Atom  86C    basis set group =>   1
Atom  87C    basis set group =>   1
Atom  88C    basis set group =>   1
Atom  89C    basis set group =>   1
Atom  90N    basis set group =>   4
Atom  91C    basis set group =>   1
Atom  92C    basis set group =>   1
Atom  93N    basis set group =>   4
Atom  94C    basis set group =>   1
Atom  95H    basis set group =>   2
Atom  96H    basis set group =>   2
Atom  97H    basis set group =>   2
Atom  98H    basis set group =>   2
Atom  99H    basis set group =>   2
Atom 100H    basis set group =>   2
Atom 101H    basis set group =>   2
Atom 102C    basis set group =>   1
Atom 103C    basis set group =>   1
Atom 104C    basis set group =>   1
Atom 105C    basis set group =>   1
Atom 106N    basis set group =>   4
Atom 107C    basis set group =>   1
Atom 108C    basis set group =>   1
Atom 109N    basis set group =>   4
Atom 110C    basis set group =>   1
Atom 111H    basis set group =>   2
Atom 112H    basis set group =>   2
Atom 113H    basis set group =>   2
Atom 114H    basis set group =>   2
Atom 115H    basis set group =>   2
Atom 116H    basis set group =>   2
Atom 117H    basis set group =>   2
Atom 118C    basis set group =>   1
Atom 119C    basis set group =>   1
Atom 120C    basis set group =>   1
Atom 121C    basis set group =>   1
Atom 122N    basis set group =>   4
Atom 123C    basis set group =>   1
Atom 124C    basis set group =>   1
Atom 125N    basis set group =>   4
Atom 126C    basis set group =>   1
Atom 127H    basis set group =>   2
Atom 128H    basis set group =>   2
Atom 129H    basis set group =>   2
Atom 130H    basis set group =>   2
Atom 131H    basis set group =>   2
Atom 132H    basis set group =>   2
Atom 133H    basis set group =>   2
Atom 134Zn   basis set group =>   3
Atom 135C    basis set group =>   1
Atom 136C    basis set group =>   1
Atom 137C    basis set group =>   1
Atom 138C    basis set group =>   1
Atom 139N    basis set group =>   4
Atom 140C    basis set group =>   1
Atom 141C    basis set group =>   1
Atom 142N    basis set group =>   4
Atom 143C    basis set group =>   1
Atom 144H    basis set group =>   2
Atom 145H    basis set group =>   2
Atom 146H    basis set group =>   2
Atom 147H    basis set group =>   2
Atom 148H    basis set group =>   2
Atom 149H    basis set group =>   2
Atom 150H    basis set group =>   2
Atom 151C    basis set group =>   1
Atom 152C    basis set group =>   1
Atom 153C    basis set group =>   1
Atom 154C    basis set group =>   1
Atom 155N    basis set group =>   4
Atom 156C    basis set group =>   1
Atom 157C    basis set group =>   1
Atom 158N    basis set group =>   4
Atom 159C    basis set group =>   1
Atom 160H    basis set group =>   2
Atom 161H    basis set group =>   2
Atom 162H    basis set group =>   2
Atom 163H    basis set group =>   2
Atom 164H    basis set group =>   2
Atom 165H    basis set group =>   2
Atom 166H    basis set group =>   2
Atom 167C    basis set group =>   1
Atom 168C    basis set group =>   1
Atom 169C    basis set group =>   1
Atom 170C    basis set group =>   1
Atom 171N    basis set group =>   4
Atom 172C    basis set group =>   1
Atom 173C    basis set group =>   1
Atom 174N    basis set group =>   4
Atom 175C    basis set group =>   1
Atom 176H    basis set group =>   2
Atom 177H    basis set group =>   2
Atom 178H    basis set group =>   2
Atom 179H    basis set group =>   2
Atom 180H    basis set group =>   2
Atom 181H    basis set group =>   2
Atom 182H    basis set group =>   2
Atom 183Zn   basis set group =>   3
Atom 184C    basis set group =>   1
Atom 185C    basis set group =>   1
Atom 186C    basis set group =>   1
Atom 187C    basis set group =>   1
Atom 188N    basis set group =>   4
Atom 189C    basis set group =>   1
Atom 190C    basis set group =>   1
Atom 191N    basis set group =>   4
Atom 192C    basis set group =>   1
Atom 193H    basis set group =>   2
Atom 194H    basis set group =>   2
Atom 195H    basis set group =>   2
Atom 196H    basis set group =>   2
Atom 197H    basis set group =>   2
Atom 198H    basis set group =>   2
Atom 199H    basis set group =>   2
Atom 200C    basis set group =>   1
Atom 201C    basis set group =>   1
Atom 202C    basis set group =>   1
Atom 203C    basis set group =>   1
Atom 204N    basis set group =>   4
Atom 205C    basis set group =>   1
Atom 206C    basis set group =>   1
Atom 207N    basis set group =>   4
Atom 208C    basis set group =>   1
Atom 209H    basis set group =>   2
Atom 210H    basis set group =>   2
Atom 211H    basis set group =>   2
Atom 212H    basis set group =>   2
Atom 213H    basis set group =>   2
Atom 214H    basis set group =>   2
Atom 215H    basis set group =>   2
Atom 216C    basis set group =>   1
Atom 217C    basis set group =>   1
Atom 218C    basis set group =>   1
Atom 219C    basis set group =>   1
Atom 220N    basis set group =>   4
Atom 221C    basis set group =>   1
Atom 222C    basis set group =>   1
Atom 223N    basis set group =>   4
Atom 224C    basis set group =>   1
Atom 225H    basis set group =>   2
Atom 226H    basis set group =>   2
Atom 227H    basis set group =>   2
Atom 228H    basis set group =>   2
Atom 229H    basis set group =>   2
Atom 230H    basis set group =>   2
Atom 231H    basis set group =>   2
---------------------------------
AUXILIARY/J BASIS SET INFORMATION
---------------------------------
There are 4 groups of distinct atoms

 Group   1 Type C   : 12s5p4d2f1g contracted to 6s4p3d1f1g pattern {711111/2111/211/2/1}
 Group   2 Type H   : 5s2p1d contracted to 3s1p1d pattern {311/2/1}
 Group   3 Type Zn  : 19s5p5d3f3g contracted to 8s5p5d2f3g pattern {121111111/11111/11111/21/111}
 Group   4 Type N   : 12s5p4d2f1g contracted to 6s4p3d1f1g pattern {711111/2111/211/2/1}

Atom   0C    basis set group =>   1
Atom   1C    basis set group =>   1
Atom   2C    basis set group =>   1
Atom   3C    basis set group =>   1
Atom   4C    basis set group =>   1
Atom   5C    basis set group =>   1
Atom   6H    basis set group =>   2
Atom   7H    basis set group =>   2
Atom   8H    basis set group =>   2
Atom   9C    basis set group =>   1
Atom  10C    basis set group =>   1
Atom  11C    basis set group =>   1
Atom  12C    basis set group =>   1
Atom  13C    basis set group =>   1
Atom  14C    basis set group =>   1
Atom  15H    basis set group =>   2
Atom  16H    basis set group =>   2
Atom  17H    basis set group =>   2
Atom  18C    basis set group =>   1
Atom  19C    basis set group =>   1
Atom  20C    basis set group =>   1
Atom  21C    basis set group =>   1
Atom  22C    basis set group =>   1
Atom  23C    basis set group =>   1
Atom  24H    basis set group =>   2
Atom  25H    basis set group =>   2
Atom  26H    basis set group =>   2
Atom  27C    basis set group =>   1
Atom  28C    basis set group =>   1
Atom  29C    basis set group =>   1
Atom  30C    basis set group =>   1
Atom  31C    basis set group =>   1
Atom  32C    basis set group =>   1
Atom  33H    basis set group =>   2
Atom  34H    basis set group =>   2
Atom  35H    basis set group =>   2
Atom  36Zn   basis set group =>   3
Atom  37C    basis set group =>   1
Atom  38C    basis set group =>   1
Atom  39C    basis set group =>   1
Atom  40C    basis set group =>   1
Atom  41N    basis set group =>   4
Atom  42C    basis set group =>   1
Atom  43C    basis set group =>   1
Atom  44N    basis set group =>   4
[...]
129 H      0.7759     1.0000     0.2241     0.9409     0.9409    -0.0000
130 H      0.8088     1.0000     0.1912     0.9552     0.9552    -0.0000
131 H      0.8451     1.0000     0.1549     0.9641     0.9641     0.0000
132 H      0.8413     1.0000     0.1587     0.9678     0.9678     0.0000
133 H      0.8236     1.0000     0.1764     0.9607     0.9607    -0.0000
134 Zn    29.5903    30.0000     0.4097     2.5821     2.5821     0.0000
135 C      6.4707     6.0000    -0.4707     3.7624     3.7624    -0.0000
136 C      5.8898     6.0000     0.1102     3.6356     3.6356    -0.0000
137 C      6.1200     6.0000    -0.1200     3.7205     3.7205     0.0000
138 C      6.0340     6.0000    -0.0340     3.8713     3.8713     0.0000
139 N      6.9993     7.0000     0.0007     3.1520     3.1520     0.0000
140 C      5.7544     6.0000     0.2456     3.6462     3.6462    -0.0000
141 C      6.2582     6.0000    -0.2582     3.9179     3.9179    -0.0000
142 N      6.9236     7.0000     0.0764     2.9753     2.9753     0.0000
143 C      6.1820     6.0000    -0.1820     3.8227     3.8227    -0.0000
144 H      0.8241     1.0000     0.1759     0.9579     0.9579    -0.0000
145 H      0.7901     1.0000     0.2099     0.9443     0.9443    -0.0000
146 H      0.7759     1.0000     0.2241     0.9409     0.9409    -0.0000
147 H      0.8088     1.0000     0.1912     0.9553     0.9553     0.0000
148 H      0.8452     1.0000     0.1548     0.9642     0.9642    -0.0000
149 H      0.8412     1.0000     0.1588     0.9678     0.9678     0.0000
150 H      0.8235     1.0000     0.1765     0.9607     0.9607    -0.0000
151 C      6.4705     6.0000    -0.4705     3.7625     3.7625    -0.0000
152 C      5.8899     6.0000     0.1101     3.6356     3.6356    -0.0000
153 C      6.1206     6.0000    -0.1206     3.7214     3.7214     0.0000
154 C      6.0334     6.0000    -0.0334     3.8713     3.8713     0.0000
155 N      6.9995     7.0000     0.0005     3.1520     3.1520     0.0000
156 C      5.7542     6.0000     0.2458     3.6462     3.6462     0.0000
157 C      6.2579     6.0000    -0.2579     3.9169     3.9169     0.0000
158 N      6.9236     7.0000     0.0764     2.9761     2.9761    -0.0000
159 C      6.1823     6.0000    -0.1823     3.8225     3.8225    -0.0000
160 H      0.8241     1.0000     0.1759     0.9579     0.9579    -0.0000
161 H      0.7902     1.0000     0.2098     0.9444     0.9444    -0.0000
162 H      0.7759     1.0000     0.2241     0.9409     0.9409    -0.0000
163 H      0.8088     1.0000     0.1912     0.9552     0.9552     0.0000
164 H      0.8452     1.0000     0.1548     0.9642     0.9642     0.0000
165 H      0.8413     1.0000     0.1587     0.9678     0.9678     0.0000
166 H      0.8235     1.0000     0.1765     0.9607     0.9607    -0.0000
167 C      6.4705     6.0000    -0.4705     3.7625     3.7625    -0.0000
168 C      5.8900     6.0000     0.1100     3.6359     3.6359    -0.0000
169 C      6.1205     6.0000    -0.1205     3.7216     3.7216    -0.0000
170 C      6.0335     6.0000    -0.0335     3.8717     3.8717     0.0000
171 N      6.9987     7.0000     0.0013     3.1531     3.1531     0.0000
172 C      5.7538     6.0000     0.2462     3.6453     3.6453     0.0000
173 C      6.2584     6.0000    -0.2584     3.9172     3.9172     0.0000
174 N      6.9239     7.0000     0.0761     2.9751     2.9751    -0.0000
175 C      6.1825     6.0000    -0.1825     3.8231     3.8231    -0.0000
176 H      0.7760     1.0000     0.2240     0.9409     0.9409    -0.0000
177 H      0.8241     1.0000     0.1759     0.9579     0.9579    -0.0000
178 H      0.7900     1.0000     0.2100     0.9443     0.9443    -0.0000
179 H      0.8088     1.0000     0.1912     0.9553     0.9553    -0.0000
180 H      0.8451     1.0000     0.1549     0.9641     0.9641     0.0000
181 H      0.8412     1.0000     0.1588     0.9678     0.9678     0.0000
182 H      0.8235     1.0000     0.1765     0.9607     0.9607    -0.0000
183 Zn    29.5900    30.0000     0.4100     2.5817     2.5817     0.0000
184 C      6.4708     6.0000    -0.4708     3.7623     3.7623    -0.0000
185 C      5.8896     6.0000     0.1104     3.6355     3.6355     0.0000
186 C      6.1203     6.0000    -0.1203     3.7207     3.7207     0.0000
187 C      6.0336     6.0000    -0.0336     3.8710     3.8710     0.0000
188 N      6.9986     7.0000     0.0014     3.1519     3.1519     0.0000
189 C      5.7553     6.0000     0.2447     3.6476     3.6476     0.0000
190 C      6.2574     6.0000    -0.2574     3.9171     3.9171     0.0000
191 N      6.9246     7.0000     0.0754     2.9754     2.9754    -0.0000
192 C      6.1823     6.0000    -0.1823     3.8231     3.8231     0.0000
193 H      0.8241     1.0000     0.1759     0.9579     0.9579    -0.0000
194 H      0.7901     1.0000     0.2099     0.9443     0.9443     0.0000
195 H      0.7759     1.0000     0.2241     0.9409     0.9409    -0.0000
196 H      0.8088     1.0000     0.1912     0.9553     0.9553    -0.0000
197 H      0.8451     1.0000     0.1549     0.9641     0.9641    -0.0000
198 H      0.8412     1.0000     0.1588     0.9678     0.9678     0.0000
199 H      0.8235     1.0000     0.1765     0.9607     0.9607     0.0000
200 C      6.4706     6.0000    -0.4706     3.7624     3.7624    -0.0000
201 C      5.8899     6.0000     0.1101     3.6360     3.6360    -0.0000
202 C      6.1204     6.0000    -0.1204     3.7217     3.7217     0.0000
203 C      6.0338     6.0000    -0.0338     3.8721     3.8721     0.0000
204 N      6.9992     7.0000     0.0008     3.1526     3.1526    -0.0000
205 C      5.7548     6.0000     0.2452     3.6472     3.6472    -0.0000
206 C      6.2582     6.0000    -0.2582     3.9179     3.9179    -0.0000
207 N      6.9242     7.0000     0.0758     2.9757     2.9757    -0.0000
208 C      6.1818     6.0000    -0.1818     3.8227     3.8227     0.0000
209 H      0.8241     1.0000     0.1759     0.9579     0.9579    -0.0000
210 H      0.7903     1.0000     0.2097     0.9445     0.9445    -0.0000
211 H      0.7756     1.0000     0.2244     0.9408     0.9408    -0.0000
212 H      0.8088     1.0000     0.1912     0.9552     0.9552    -0.0000
213 H      0.8452     1.0000     0.1548     0.9641     0.9641    -0.0000
214 H      0.8413     1.0000     0.1587     0.9678     0.9678    -0.0000
215 H      0.8235     1.0000     0.1765     0.9607     0.9607    -0.0000
216 C      6.4708     6.0000    -0.4708     3.7623     3.7623     0.0000
217 C      5.8899     6.0000     0.1101     3.6355     3.6355     0.0000
218 C      6.1199     6.0000    -0.1199     3.7204     3.7204    -0.0000
219 C      6.0339     6.0000    -0.0339     3.8712     3.8712    -0.0000
220 N      6.9984     7.0000     0.0016     3.1522     3.1522    -0.0000
221 C      5.7545     6.0000     0.2455     3.6460     3.6460    -0.0000
222 C      6.2578     6.0000    -0.2578     3.9171     3.9171    -0.0000
223 N      6.9241     7.0000     0.0759     2.9761     2.9761     0.0000
224 C      6.1826     6.0000    -0.1826     3.8236     3.8236    -0.0000
225 H      0.7898     1.0000     0.2102     0.9442     0.9442     0.0000
226 H      0.7762     1.0000     0.2238     0.9410     0.9410    -0.0000
227 H      0.8240     1.0000     0.1760     0.9579     0.9579    -0.0000
228 H      0.8088     1.0000     0.1912     0.9553     0.9553    -0.0000
229 H      0.8452     1.0000     0.1548     0.9641     0.9641    -0.0000
230 H      0.8413     1.0000     0.1587     0.9678     0.9678    -0.0000
231 H      0.8236     1.0000     0.1764     0.9607     0.9607     0.0000

  Mayer bond orders larger than 0.100000
B(  0-C ,  1-C ) :   1.4803 B(  0-C ,  5-C ) :   1.1884 B(  0-C , 44-N ) :   0.7102 
B(  1-C ,  2-C ) :   1.1880 B(  1-C ,  6-H ) :   0.8732 B(  2-C ,  3-C ) :   1.4792 
B(  2-C ,142-N ) :   0.7107 B(  3-C ,  4-C ) :   1.1869 B(  3-C ,  7-H ) :   0.8748 
B(  4-C ,  5-C ) :   1.4792 B(  4-C , 93-N ) :   0.7106 B(  5-C ,  8-H ) :   0.8740 
B(  9-C , 10-C ) :   1.4798 B(  9-C , 14-C ) :   1.1883 B(  9-C , 76-N ) :   0.7103 
B( 10-C , 11-C ) :   1.1875 B( 10-C , 15-H ) :   0.8739 B( 11-C , 12-C ) :   1.4810 
B( 11-C ,109-N ) :   0.7105 B( 12-C , 13-C ) :   1.1871 B( 12-C , 16-H ) :   0.8740 
B( 13-C , 14-C ) :   1.4790 B( 13-C ,191-N ) :   0.7104 B( 14-C , 17-H ) :   0.8741 
B( 18-C , 19-C ) :   1.4796 B( 18-C , 23-C ) :   1.1876 B( 18-C , 60-N ) :   0.7098 
B( 19-C , 20-C ) :   1.1888 B( 19-C , 24-H ) :   0.8737 B( 20-C , 21-C ) :   1.4799 
B( 20-C ,207-N ) :   0.7102 B( 21-C , 22-C ) :   1.1878 B( 21-C , 25-H ) :   0.8738 
B( 22-C , 23-C ) :   1.4804 B( 22-C ,174-N ) :   0.7108 B( 23-C , 26-H ) :   0.8737 
B( 27-C , 28-C ) :   1.4797 B( 27-C , 32-C ) :   1.1884 B( 27-C ,125-N ) :   0.7105 
B( 28-C , 29-C ) :   1.1876 B( 28-C , 33-H ) :   0.8741 B( 29-C , 30-C ) :   1.4792 
B( 29-C ,158-N ) :   0.7109 B( 30-C , 31-C ) :   1.1892 B( 30-C , 34-H ) :   0.8730 
B( 31-C , 32-C ) :   1.4811 B( 31-C ,223-N ) :   0.7108 B( 32-C , 35-H ) :   0.8731 
B( 36-Zn, 41-N ) :   0.4741 B( 36-Zn, 44-N ) :   0.3390 B( 36-Zn, 57-N ) :   0.4741 
B( 36-Zn, 60-N ) :   0.3389 B( 36-Zn, 73-N ) :   0.4738 B( 36-Zn, 76-N ) :   0.3388 
B( 37-C , 38-C ) :   0.9370 B( 37-C , 46-H ) :   0.9621 B( 37-C , 47-H ) :   0.9319 
B( 37-C , 48-H ) :   0.9322 B( 38-C , 39-C ) :   1.3000 B( 38-C , 45-C ) :   1.3178 
B( 39-C , 40-C ) :   1.3797 B( 39-C , 49-H ) :   0.9335 B( 40-C , 41-N ) :   1.3532 
B( 40-C , 50-H ) :   0.9341 B( 41-N , 42-C ) :   1.2337 B( 42-C , 43-C ) :   0.9496 
B( 42-C , 44-N ) :  -0.1290 B( 42-C , 45-C ) :   1.4266 B( 43-C , 44-N ) :   1.8402 
B( 43-C , 51-H ) :   0.9160 B( 45-C , 52-H ) :   0.8874 B( 53-C , 54-C ) :   0.9372 
B( 53-C , 62-H ) :   0.9319 B( 53-C , 63-H ) :   0.9620 B( 53-C , 64-H ) :   0.9322 
B( 54-C , 55-C ) :   1.3005 B( 54-C , 61-C ) :   1.3175 B( 55-C , 56-C ) :   1.3798 
B( 55-C , 65-H ) :   0.9333 B( 56-C , 57-N ) :   1.3530 B( 56-C , 66-H ) :   0.9342 
B( 57-N , 58-C ) :   1.2338 B( 58-C , 59-C ) :   0.9498 B( 58-C , 60-N ) :  -0.1289 
B( 58-C , 61-C ) :   1.4269 B( 59-C , 60-N ) :   1.8400 B( 59-C , 67-H ) :   0.9159 
B( 61-C , 68-H ) :   0.8873 B( 69-C , 70-C ) :   0.9371 B( 69-C , 78-H ) :   0.9620 
B( 69-C , 79-H ) :   0.9323 B( 69-C , 80-H ) :   0.9317 B( 70-C , 71-C ) :   1.3004 
B( 70-C , 77-C ) :   1.3174 B( 71-C , 72-C ) :   1.3800 B( 71-C , 81-H ) :   0.9332 
B( 72-C , 73-N ) :   1.3527 B( 72-C , 82-H ) :   0.9341 B( 73-N , 74-C ) :   1.2346 
B( 74-C , 75-C ) :   0.9503 B( 74-C , 76-N ) :  -0.1284 B( 74-C , 77-C ) :   1.4272 
B( 75-C , 76-N ) :   1.8391 B( 75-C , 83-H ) :   0.9160 B( 77-C , 84-H ) :   0.8874 
B( 85-Zn, 90-N ) :   0.4737 B( 85-Zn, 93-N ) :   0.3392 B( 85-Zn,106-N ) :   0.4744 
B( 85-Zn,109-N ) :   0.3392 B( 85-Zn,122-N ) :   0.4742 B( 85-Zn,125-N ) :   0.3390 
B( 86-C , 87-C ) :   0.9371 B( 86-C , 95-H ) :   0.9620 B( 86-C , 96-H ) :   0.9322 
B( 86-C , 97-H ) :   0.9319 B( 87-C , 88-C ) :   1.3005 B( 87-C , 94-C ) :   1.3174 
B( 88-C , 89-C ) :   1.3796 B( 88-C , 98-H ) :   0.9333 B( 89-C , 90-N ) :   1.3527 
B( 89-C , 99-H ) :   0.9342 B( 90-N , 91-C ) :   1.2346 B( 91-C , 92-C ) :   0.9505 
B( 91-C , 93-N ) :  -0.1287 B( 91-C , 94-C ) :   1.4268 B( 92-C , 93-N ) :   1.8391 
B( 92-C ,100-H ) :   0.9158 B( 94-C ,101-H ) :   0.8875 B(102-C ,103-C ) :   0.9371 
B(102-C ,111-H ) :   0.9317 B(102-C ,112-H ) :   0.9620 B(102-C ,113-H ) :   0.9323 
B(103-C ,104-C ) :   1.3003 B(103-C ,110-C ) :   1.3176 B(104-C ,105-C ) :   1.3796 
B(104-C ,114-H ) :   0.9332 B(105-C ,106-N ) :   1.3530 B(105-C ,115-H ) :   0.9345 
B(106-N ,107-C ) :   1.2342 B(107-C ,108-C ) :   0.9496 B(107-C ,109-N ) :  -0.1288 
B(107-C ,110-C ) :   1.4272 B(108-C ,109-N ) :   1.8395 B(108-C ,116-H ) :   0.9160 
B(110-C ,117-H ) :   0.8873 B(118-C ,119-C ) :   0.9372 B(118-C ,127-H ) :   0.9620 
B(118-C ,128-H ) :   0.9322 B(118-C ,129-H ) :   0.9319 B(119-C ,120-C ) :   1.3002 
B(119-C ,126-C ) :   1.3176 B(120-C ,121-C ) :   1.3797 B(120-C ,130-H ) :   0.9333 
B(121-C ,122-N ) :   1.3530 B(121-C ,131-H ) :   0.9341 B(122-N ,123-C ) :   1.2341 
B(123-C ,124-C ) :   0.9501 B(123-C ,125-N ) :  -0.1286 B(123-C ,126-C ) :   1.4268 
B(124-C ,125-N ) :   1.8394 B(124-C ,132-H ) :   0.9159 B(126-C ,133-H ) :   0.8875 
B(134-Zn,139-N ) :   0.4741 B(134-Zn,142-N ) :   0.3388 B(134-Zn,155-N ) :   0.4735 
B(134-Zn,158-N ) :   0.3395 B(134-Zn,171-N ) :   0.4745 B(134-Zn,174-N ) :   0.3388 
B(135-C ,136-C ) :   0.9372 B(135-C ,144-H ) :   0.9620 B(135-C ,145-H ) :   0.9322 
B(135-C ,146-H ) :   0.9319 B(136-C ,137-C ) :   1.3003 B(136-C ,143-C ) :   1.3174 
B(137-C ,138-C ) :   1.3795 B(137-C ,147-H ) :   0.9333 B(138-C ,139-N ) :   1.3526 
B(138-C ,148-H ) :   0.9344 B(139-N ,140-C ) :   1.2338 B(140-C ,141-C ) :   0.9505 
B(140-C ,142-N ) :  -0.1285 B(140-C ,143-C ) :   1.4268 B(141-C ,142-N ) :   1.8395 
B(141-C ,149-H ) :   0.9158 B(143-C ,150-H ) :   0.8875 B(151-C ,152-C ) :   0.9372 
B(151-C ,160-H ) :   0.9620 B(151-C ,161-H ) :   0.9323 B(151-C ,162-H ) :   0.9319 
B(152-C ,153-C ) :   1.3004 B(152-C ,159-C ) :   1.3173 B(153-C ,154-C ) :   1.3799 
B(153-C ,163-H ) :   0.9333 B(154-C ,155-N ) :   1.3527 B(154-C ,164-H ) :   0.9341 
B(155-N ,156-C ) :   1.2344 B(156-C ,157-C ) :   0.9504 B(156-C ,158-N ) :  -0.1285 
B(156-C ,159-C ) :   1.4265 B(157-C ,158-N ) :   1.8388 B(157-C ,165-H ) :   0.9159 
B(159-C ,166-H ) :   0.8877 B(167-C ,168-C ) :   0.9372 B(167-C ,176-H ) :   0.9320 
B(167-C ,177-H ) :   0.9619 B(167-C ,178-H ) :   0.9321 B(168-C ,169-C ) :   1.3003 
B(168-C ,175-C ) :   1.3176 B(169-C ,170-C ) :   1.3801 B(169-C ,179-H ) :   0.9334 
B(170-C ,171-N ) :   1.3528 B(170-C ,180-H ) :   0.9340 B(171-N ,172-C ) :   1.2345 
B(172-C ,173-C ) :   0.9498 B(172-C ,174-N ) :  -0.1289 B(172-C ,175-C ) :   1.4265 
B(173-C ,174-N ) :   1.8396 B(173-C ,181-H ) :   0.9159 B(175-C ,182-H ) :   0.8876 
B(183-Zn,188-N ) :   0.4741 B(183-Zn,191-N ) :   0.3388 B(183-Zn,204-N ) :   0.4741 
B(183-Zn,207-N ) :   0.3389 B(183-Zn,220-N ) :   0.4741 B(183-Zn,223-N ) :   0.3392 
B(184-C ,185-C ) :   0.9370 B(184-C ,193-H ) :   0.9621 B(184-C ,194-H ) :   0.9322 
B(184-C ,195-H ) :   0.9319 B(185-C ,186-C ) :   1.3003 B(185-C ,192-C ) :   1.3176 
B(186-C ,187-C ) :   1.3795 B(186-C ,196-H ) :   0.9333 B(187-C ,188-N ) :   1.3526 
B(187-C ,197-H ) :   0.9343 B(188-N ,189-C ) :   1.2343 B(189-C ,190-C ) :   0.9508 
B(189-C ,191-N ) :  -0.1284 B(189-C ,192-C ) :   1.4267 B(190-C ,191-N ) :   1.8390 
B(190-C ,198-H ) :   0.9159 B(192-C ,199-H ) :   0.8874 B(200-C ,201-C ) :   0.9371 
B(200-C ,209-H ) :   0.9619 B(200-C ,210-H ) :   0.9324 B(200-C ,211-H ) :   0.9317 
B(201-C ,202-C ) :   1.3007 B(201-C ,208-C ) :   1.3174 B(202-C ,203-C ) :   1.3801 
B(202-C ,212-H ) :   0.9332 B(203-C ,204-N ) :   1.3530 B(203-C ,213-H ) :   0.9341 
B(204-N ,205-C ) :   1.2341 B(205-C ,206-C ) :   0.9502 B(205-C ,207-N ) :  -0.1286 
B(205-C ,208-C ) :   1.4271 B(206-C ,207-N ) :   1.8398 B(206-C ,214-H ) :   0.9158 
B(208-C ,215-H ) :   0.8873 B(216-C ,217-C ) :   0.9370 B(216-C ,225-H ) :   0.9320 
B(216-C ,226-H ) :   0.9320 B(216-C ,227-H ) :   0.9621 B(217-C ,218-C ) :   1.3002 
B(217-C ,224-C ) :   1.3178 B(218-C ,219-C ) :   1.3794 B(218-C ,228-H ) :   0.9334 
B(219-C ,220-N ) :   1.3527 B(219-C ,229-H ) :   0.9344 B(220-N ,221-C ) :   1.2345 
B(221-C ,222-C ) :   0.9500 B(221-C ,223-N ) :  -0.1285 B(221-C ,224-C ) :   1.4266 
B(222-C ,223-N ) :   1.8393 B(222-C ,230-H ) :   0.9161 B(224-C ,231-H ) :   0.8876 


-------
TIMINGS
-------

Total SCF time: 0 days 0 hours 6 min 21 sec 

Total time                  ....     381.988 sec
Sum of individual times     ....     363.098 sec  ( 95.1%)

Fock matrix formation       ....     242.903 sec  ( 63.6%)
  Split-RI-J                ....     132.953 sec  ( 54.7% of F)
  XC integration            ....      99.500 sec  ( 41.0% of F)
    Basis function eval.    ....       8.563 sec  (  8.6% of XC)
    Density eval.           ....      58.763 sec  ( 59.1% of XC)
    XC-Functional eval.     ....       2.042 sec  (  2.1% of XC)
    XC-Potential eval.      ....      18.761 sec  ( 18.9% of XC)
Diagonalization             ....      36.585 sec  (  9.6%)
Density matrix formation    ....       3.358 sec  (  0.9%)
Population analysis         ....      21.227 sec  (  5.6%)
Initial guess               ....       8.115 sec  (  2.1%)
Orbital Transformation      ....       0.000 sec  (  0.0%)
Orbital Orthonormalization  ....       0.000 sec  (  0.0%)
DIIS solution               ....      34.411 sec  (  9.0%)
Grid generation             ....      16.500 sec  (  4.3%)

Maximum memory used throughout the entire SCF-calculation: 1425.3 MB


-------------------------------------------------------------------------------
                          DFT DISPERSION CORRECTION                            
                                                                               
                                 DFTD4 V2.5                                    
-------------------------------------------------------------------------------
The R2SCAN3C composite method is recognized
Using three-body term ABC
Active option DFTDOPT                   ...         5   

Starting D4
-------------------------   ----------------
Dispersion correction           -0.178507297
-------------------------   ----------------

NOTIFICATION: Different basis set in ORCA and otool_gcp:
ORCA: 3240  gCP: 3232 
If you are NOT using ECPs, check your basis set inputs!
------------------   -----------------
gCP correction             0.139453064
------------------   -----------------

-------------------------   --------------------
FINAL SINGLE POINT ENERGY    -12600.961921026188
-------------------------   --------------------


                            ***************************************
                            *     ORCA property calculations      *
                            ***************************************

                                    ---------------------
                                    Active property flags
                                    ---------------------
   (+) Dipole Moment


------------------------------------------------------------------------------
                       ORCA ELECTRIC PROPERTIES CALCULATION
------------------------------------------------------------------------------

Dipole Moment Calculation                       ... on
Quadrupole Moment Calculation                   ... off
Polarizability Calculation                      ... off
GBWName                                         ... Tetrahedron_l1_ald4_ORCA_DFT.gbw
Electron density                                ... Tetrahedron_l1_ald4_ORCA_DFT.scfp
The origin for moment calculation is the CENTER OF MASS  = (-0.110904,  1.536826  1.297054)

-------------
DIPOLE MOMENT
-------------
                                X             Y             Z
Electronic contribution:     -0.00800       0.01486      -0.00967
Nuclear contribution   :      0.00946      -0.01602       0.01162
                        -----------------------------------------
Total Dipole Moment    :      0.00147      -0.00116       0.00196
                        -----------------------------------------
Magnitude (a.u.)       :      0.00271
Magnitude (Debye)      :      0.00688



--------------------
Rotational spectrum 
--------------------
 
Rotational constants in cm-1:     0.000300     0.000300     0.000300 
Rotational constants in MHz :     8.989882     8.989263     8.988737 

 Dipole components along the rotational axes: 
x,y,z [a.u.] :     0.001073    -0.001751    -0.001763 
x,y,z [Debye]:     0.002727    -0.004450    -0.004482 

 

Timings for individual modules:

Sum of individual times         ...      394.655 sec (=   6.578 min)
GTO integral calculation        ...       10.774 sec (=   0.180 min)   2.7 %
SCF iterations                  ...      383.881 sec (=   6.398 min)  97.3 %
                             ****ORCA TERMINATED NORMALLY****
TOTAL RUN TIME: 0 days 0 hours 6 minutes 40 seconds 552 msec
