
                                 *****************
                                 * O   R   C   A *
                                 *****************

                                            #,                                       
                                            ###                                      
                                            ####                                     
                                            #####                                    
                                            ######                                   
                                           ########,                                 
                                     ,,################,,,,,                         
                               ,,#################################,,                 
                          ,,##########################################,,             
                       ,#########################################, ''#####,          
                    ,#############################################,,   '####,        
                  ,##################################################,,,,####,       
                ,###########''''           ''''###############################       
              ,#####''   ,,,,##########,,,,          '''####'''          '####       
            ,##' ,,,,###########################,,,                        '##       
           ' ,,###''''                  '''############,,,                           
         ,,##''                                '''############,,,,        ,,,,,,###''
      ,#''                                            '''#######################'''  
     '                                                          ''''####''''         
             ,#######,   #######,   ,#######,      ##                                
            ,#'     '#,  ##    ##  ,#'     '#,    #''#        ######   ,####,        
            ##       ##  ##   ,#'  ##            #'  '#       #        #'  '#        
            ##       ##  #######   ##           ,######,      #####,   #    #        
            '#,     ,#'  ##    ##  '#,     ,#' ,#      #,         ##   #,  ,#        
             '#######'   ##     ##  '#######'  #'      '#     #####' # '####'        



                  #######################################################
                  #                        -***-                        #
                  #          Department of theory and spectroscopy      #
                  #    Directorship and core code : Frank Neese         #
                  #        Max Planck Institute fuer Kohlenforschung    #
                  #                Kaiser Wilhelm Platz 1               #
                  #                 D-45470 Muelheim/Ruhr               #
                  #                      Germany                        #
                  #                                                     #
                  #                  All rights reserved                #
                  #                        -***-                        #
                  #######################################################


                         Program Version 5.0.4 -  RELEASE  -


 With contributions from (in alphabetic order):
   Daniel Aravena         : Magnetic Suceptibility
   Michael Atanasov       : Ab Initio Ligand Field Theory (pilot matlab implementation)
   Alexander A. Auer      : GIAO ZORA, VPT2 properties, NMR spectrum
   Ute Becker             : Parallelization
   Giovanni Bistoni       : ED, misc. LED, open-shell LED, HFLD
   Martin Brehm           : Molecular dynamics
   Dmytro Bykov           : SCF Hessian
   Vijay G. Chilkuri      : MRCI spin determinant printing, contributions to CSF-ICE
   Dipayan Datta          : RHF DLPNO-CCSD density
   Achintya Kumar Dutta   : EOM-CC, STEOM-CC
   Dmitry Ganyushin       : Spin-Orbit,Spin-Spin,Magnetic field MRCI
   Miquel Garcia          : C-PCM and meta-GGA Hessian, CC/C-PCM, Gaussian charge scheme
   Yang Guo               : DLPNO-NEVPT2, F12-NEVPT2, CIM, IAO-localization
   Andreas Hansen         : Spin unrestricted coupled pair/coupled cluster methods
   Benjamin Helmich-Paris : MC-RPA, TRAH-SCF, COSX integrals
   Lee Huntington         : MR-EOM, pCC
   Robert Izsak           : Overlap fitted RIJCOSX, COSX-SCS-MP3, EOM
   Marcus Kettner         : VPT2
   Christian Kollmar      : KDIIS, OOCD, Brueckner-CCSD(T), CCSD density, CASPT2, CASPT2-K
   Simone Kossmann        : Meta GGA functionals, TD-DFT gradient, OOMP2, MP2 Hessian
   Martin Krupicka        : Initial AUTO-CI
   Lucas Lang             : DCDCAS
   Marvin Lechner         : AUTO-CI (C++ implementation), FIC-MRCC
   Dagmar Lenk            : GEPOL surface, SMD
   Dimitrios Liakos       : Extrapolation schemes; Compound Job, initial MDCI parallelization
   Dimitrios Manganas     : Further ROCIS development; embedding schemes
   Dimitrios Pantazis     : SARC Basis sets
   Anastasios Papadopoulos: AUTO-CI, single reference methods and gradients
   Taras Petrenko         : DFT Hessian,TD-DFT gradient, ASA, ECA, R-Raman, ABS, FL, XAS/XES, NRVS
   Peter Pinski           : DLPNO-MP2, DLPNO-MP2 Gradient
   Christoph Reimann      : Effective Core Potentials
   Marius Retegan         : Local ZFS, SOC
   Christoph Riplinger    : Optimizer, TS searches, QM/MM, DLPNO-CCSD(T), (RO)-DLPNO pert. Triples
   Tobias Risthaus        : Range-separated hybrids, TD-DFT gradient, RPA, STAB
   Michael Roemelt        : Original ROCIS implementation
   Masaaki Saitow         : Open-shell DLPNO-CCSD energy and density
   Barbara Sandhoefer     : DKH picture change effects
   Avijit Sen             : IP-ROCIS
   Kantharuban Sivalingam : CASSCF convergence, NEVPT2, FIC-MRCI
   Bernardo de Souza      : ESD, SOC TD-DFT
   Georgi Stoychev        : AutoAux, RI-MP2 NMR, DLPNO-MP2 response
   Willem Van den Heuvel  : Paramagnetic NMR
   Boris Wezisla          : Elementary symmetry handling
   Frank Wennmohs         : Technical directorship


 We gratefully acknowledge several colleagues who have allowed us to
 interface, adapt or use parts of their codes:
   Stefan Grimme, W. Hujo, H. Kruse, P. Pracht,  : VdW corrections, initial TS optimization,
                  C. Bannwarth, S. Ehlert          DFT functionals, gCP, sTDA/sTD-DF
   Ed Valeev, F. Pavosevic, A. Kumar             : LibInt (2-el integral package), F12 methods
   Garnet Chan, S. Sharma, J. Yang, R. Olivares  : DMRG
   Ulf Ekstrom                                   : XCFun DFT Library
   Mihaly Kallay                                 : mrcc  (arbitrary order and MRCC methods)
   Jiri Pittner, Ondrej Demel                    : Mk-CCSD
   Frank Weinhold                                : gennbo (NPA and NBO analysis)
   Christopher J. Cramer and Donald G. Truhlar   : smd solvation model
   Lars Goerigk                                  : TD-DFT with DH, B97 family of functionals
   V. Asgeirsson, H. Jonsson                     : NEB implementation
   FAccTs GmbH                                   : IRC, NEB, NEB-TS, DLPNO-Multilevel, CI-OPT
                                                   MM, QMMM, 2- and 3-layer-ONIOM, Crystal-QMMM,
                                                   LR-CPCM, SF, NACMEs, symmetry and pop. for TD-DFT,
                                                   nearIR, NL-DFT gradient (VV10), updates on ESD,
                                                   ML-optimized integration grids
   S Lehtola, MJT Oliveira, MAL Marques          : LibXC Library
   Liviu Ungur et al                             : ANISO software


 Your calculation uses the libint2 library for the computation of 2-el integrals
 For citations please refer to: http://libint.valeyev.net

 Your ORCA version has been built with support for libXC version: 5.1.0
 For citations please refer to: https://tddft.org/programs/libxc/

 This ORCA versions uses:
   CBLAS   interface :  Fast vector & matrix operations
   LAPACKE interface :  Fast linear algebra routines
   SCALAPACK package :  Parallel linear algebra routines
   Shared memory     :  Shared parallel matrices
   BLAS/LAPACK       :  OpenBLAS 0.3.15  USE64BITINT DYNAMIC_ARCH NO_AFFINITY Prescott SINGLE_THREADED
        Core in use  :  Prescott
   Copyright (c) 2011-2014, The OpenBLAS Project




***************************************
The coordinates will be read from file: /rds/user/pcpt3/hpc-work/CageConstruction/GreenawayCollab/Tetrahedrons_ORCA_DFT/Tetrahedron_l1_ald3_ORCA_DFT/Tetrahedron_l1_ald3_XTB.xyz
***************************************


Your calculation utilizes the geometrical counterpoise correction gCP
Please cite in your paper:
H.Kruse, S. Grimme J.Chem.Phys., 136, (2012), 154101 
   

Your calculation utilizes the atom-pairwise dispersion correction
based on tight binding partial charges (D4)
Cite in your paper:
E.Caldeweyher, C.Bannwarth, S.Grimme, J.Chem.Phys., (2017), 147, 034112.
E.Caldeweyher, S.Ehlert, A.Hansen, H.Neugebauer, S.Grimme, J.Chem.Phys., (2018), in progress.
   

================================================================================

----- Orbital basis set information -----
Your calculation utilizes the basis: def2-mTZVPP
   Stefan Grimme, Andreas Hansen, Sebastian Ehlert, and Jan-Michael Mewes 
   J. Chem. Phys. 154, 000000 (2021). DOI: 10.1063/5.0040021

----- AuxJ basis set information -----
Your calculation utilizes the auxiliary basis: def2/J
   F. Weigend, Phys. Chem. Chem. Phys. 8, 1057 (2006).

================================================================================
                                        WARNINGS
                       Please study these warnings very carefully!
================================================================================

Using LibXC functional ID 497 : Re-regularized SCAN exchange by Furness et al
[ 1]  J. W. Furness, A. D. Kaplan, J. Ning, J. P. Perdew, and J. Sun, J. Phys. Chem. Lett. 11, 8208 (2020)
[ 2]  J. W. Furness, A. D. Kaplan, J. Ning, J. P. Perdew, and J. Sun, J. Phys. Chem. Lett. 11, 9248 (2020)
Using LibXC functional ID 498 : Re-regularized SCAN correlation by Furness et al
[ 1]  J. W. Furness, A. D. Kaplan, J. Ning, J. P. Perdew, and J. Sun, J. Phys. Chem. Lett. 11, 8208 (2020)
[ 2]  J. W. Furness, A. D. Kaplan, J. Ning, J. P. Perdew, and J. Sun, J. Phys. Chem. Lett. 11, 9248 (2020)
Using LibXC functional ID 497 : Re-regularized SCAN exchange by Furness et al
[ 1]  J. W. Furness, A. D. Kaplan, J. Ning, J. P. Perdew, and J. Sun, J. Phys. Chem. Lett. 11, 8208 (2020)
[ 2]  J. W. Furness, A. D. Kaplan, J. Ning, J. P. Perdew, and J. Sun, J. Phys. Chem. Lett. 11, 9248 (2020)
Using LibXC functional ID 498 : Re-regularized SCAN correlation by Furness et al
[ 1]  J. W. Furness, A. D. Kaplan, J. Ning, J. P. Perdew, and J. Sun, J. Phys. Chem. Lett. 11, 8208 (2020)
[ 2]  J. W. Furness, A. D. Kaplan, J. Ning, J. P. Perdew, and J. Sun, J. Phys. Chem. Lett. 11, 9248 (2020)

INFO   : the flag for use of the SHARK integral package has been found!

================================================================================
                                       INPUT FILE
================================================================================
NAME = Tetrahedron_l1_ald3_ORCA_DFT.inp
|  1> ! r2SCAN-3c ENERGY TightSCF def2/J 
|  2> %PAL NPROCS 32 END 
|  3> %maxcore 5316 
|  4> 
|  5> *xyzfile 8 1 /rds/user/pcpt3/hpc-work/CageConstruction/GreenawayCollab/Tetrahedrons_ORCA_DFT/Tetrahedron_l1_ald3_ORCA_DFT/Tetrahedron_l1_ald3_XTB.xyz 
|  6> 
|  7>                          ****END OF INPUT****
================================================================================

                       ****************************
                       * Single Point Calculation *
                       ****************************

---------------------------------
CARTESIAN COORDINATES (ANGSTROEM)
---------------------------------
  C      0.342200   -2.633100    2.602500
  C      1.663400   -2.825300    2.209700
  C      1.962300   -3.281600    0.925800
  C      0.925500   -3.561700    0.040800
  C     -0.403000   -3.373100    0.422300
  C     -0.688000   -2.917700    1.706100
  H      2.448700   -2.630900    2.921300
  H      1.168400   -3.942500   -0.937500
  H     -1.718900   -2.805500    1.998800
  C     -0.945900    1.102500    2.636200
  C     -1.785200    0.049500    2.284600
  C     -2.370800    0.001600    1.019400
  C     -2.123900    1.027500    0.111900
  C     -1.284600    2.088500    0.452200
  C     -0.706400    2.124600    1.717600
  H     -1.986500   -0.717800    3.013700
  H     -2.606400    0.994400   -0.850900
  H     -0.084500    2.964800    1.978900
  C      2.934700    0.350800    2.557400
  C      2.430100    1.598800    2.204300
  C      2.640600    2.112700    0.924700
  C      3.377200    1.374000    0.003500
  C      3.888000    0.121700    0.344900
  C      3.671100   -0.379900    1.624800
  H      1.888900    2.166500    2.943200
  H      3.559000    1.795400   -0.971400
  H      4.096800   -1.334700    1.885900
  C     -0.681100   -0.708000   -2.483500
  C      0.281700   -1.712500   -2.511100
  C      1.639400   -1.393000   -2.531000
  C      2.027700   -0.056600   -2.541300
  C      1.072400    0.959500   -2.513900
  C     -0.279000    0.627700   -2.493800
  H     -0.042400   -2.739900   -2.533600
  H      3.078500    0.176900   -2.587700
  H     -1.007300    1.421700   -2.503400
  Zn     0.826700   -0.399000    5.029700
  N      0.061000   -2.144900    3.885100
  C     -0.824800   -2.742300    4.594900
  C     -1.270500   -2.243300    5.867700
  C     -2.178600   -2.972400    6.646300
  C     -2.603800   -2.459500    7.855300
  C     -2.131800   -1.210500    8.274400
  C     -2.562800   -0.614300    9.552900
  C     -1.222600   -0.559300    7.422100
  N     -0.798100   -1.047900    6.269900
  H     -1.284900   -3.671700    4.255600
  H     -2.531500   -3.934000    6.306400
  H     -3.294100   -3.011600    8.475900
  H     -2.353700   -1.291900   10.382400
  H     -3.645900   -0.478500    9.563100
  H     -2.088000    0.342700    9.747000
  H     -0.830000    0.404900    7.713600
  N      2.688300   -0.163900    3.836700
  C      3.668300   -0.647200    4.508600
  C      3.495600   -1.310600    5.772400
  C      4.603100   -1.749800    6.509300
  C      4.406500   -2.401900    7.710000
  C      3.101500   -2.627200    8.162400
  C      2.838000   -3.327900    9.433300
  C      2.058700   -2.146100    7.351000
  N      2.236200   -1.508200    6.207300
  H      4.693100   -0.573000    4.141300
  H      5.602000   -1.566800    6.144100
  H      5.247400   -2.737700    8.298800
  H      3.343100   -2.825800   10.260300
  H      3.263500   -4.332900    9.408700
  H      1.777900   -3.401600    9.656200
  H      1.036300   -2.294600    7.669300
  N     -0.341100    1.119800    3.899700
  C     -0.393100    2.195800    4.596000
  C      0.303400    2.351500    5.844300
  C      0.150700    3.514100    6.610800
  C      0.847000    3.644500    7.795600
  C      1.707000    2.618000    8.202100
  C      2.480600    2.713100    9.454400
  C      1.789200    1.492300    7.363600
  N      1.116300    1.351300    6.235000
  H     -0.979400    3.053800    4.263100
  H     -0.517200    4.294900    6.280800
  H      0.733800    4.527600    8.406900
  H      3.079300    1.827100    9.642400
  H      1.816700    2.882800   10.303800
  H      3.138400    3.583900    9.429700
  H      2.437800    0.674900    7.646300
  Zn    -3.200700   -2.415700   -1.121100
  N     -1.448000   -3.624100   -0.476300
  C     -1.454600   -4.730800   -1.124700
  C     -2.410400   -5.023600   -2.158200
  C     -2.430700   -6.277600   -2.782400
  C     -3.346200   -6.523700   -3.785900
  C     -4.228300   -5.508800   -4.173400
  C     -5.218100   -5.717900   -5.246800
  C     -4.129100   -4.287100   -3.484300
  N     -3.266200   -4.045900   -2.512900
  H     -0.720700   -5.510500   -0.914600
  H     -1.742400   -7.047800   -2.469800
  H     -3.385800   -7.487700   -4.271300
  H     -5.854100   -6.575500   -5.020700
  H     -4.716600   -5.974800   -6.181800
  H     -5.843100   -4.845700   -5.412600
  H     -4.797700   -3.480200   -3.749800
  N     -3.191200   -1.072200    0.650300
  C     -4.123800   -1.442500    1.449400
  C     -4.932900   -2.608100    1.216600
  C     -5.995100   -2.927000    2.072500
  C     -6.743500   -4.062300    1.834900
  C     -6.416800   -4.884600    0.750600
  C     -7.179300   -6.113100    0.459300
  C     -5.334100   -4.477000   -0.048800
  N     -4.620500   -3.384800    0.161500
  H     -4.346000   -0.876900    2.355600
  H     -6.232100   -2.280500    2.903500
  H     -7.574000   -4.319000    2.475900
  H     -6.820600   -6.625200   -0.428400
  H     -8.239900   -5.886900    0.337500
  H     -7.130800   -6.800500    1.306000
  H     -5.054300   -5.082300   -0.899700
  N     -2.039700   -1.045700   -2.432600
  C     -2.850700   -0.472300   -3.244300
  C     -4.275400   -0.657500   -3.184400
  C     -5.115200   -0.076700   -4.143500
  C     -6.480800   -0.255200   -4.050000
  C     -7.003700   -1.000800   -2.987400
  C     -8.455700   -1.212500   -2.837300
  C     -6.077600   -1.542800   -2.078600
  N     -4.767900   -1.390100   -2.167200
  H     -2.485600    0.192300   -4.028900
  H     -4.693300    0.495000   -4.955800
  H     -7.144300    0.174100   -4.786100
  H     -8.872500   -1.667100   -3.737700
  H     -8.971200   -0.255400   -2.737600
  H     -8.699800   -1.832700   -1.980100
  H     -6.441800   -2.130400   -1.247500
  Zn     4.414600   -2.746800   -1.270500
  N      3.291900   -3.447200    0.516900
  C      4.099100   -4.087200    1.281200
  C      5.506700   -4.199300    1.009900
  C      6.335200   -4.977600    1.828600
  C      7.686500   -5.050900    1.556000
  C      8.207900   -4.331800    0.474600
  C      9.645700   -4.368800    0.147700
  C      7.293600   -3.582100   -0.286400
  N      5.996300   -3.516700   -0.042800
  H      3.743700   -4.582300    2.186300
  H      5.914700   -5.525100    2.658100
  H      8.340000   -5.655100    2.167800
  H     10.236600   -4.003400    0.989700
  H      9.888200   -3.780300   -0.732000
  H      9.977800   -5.396800   -0.007400
  H      7.656400   -3.017800   -1.134200
  N      2.612200   -2.401100   -2.527100
  C      2.499400   -3.373800   -3.355600
  C      3.373400   -4.515500   -3.341700
  C      3.264500   -5.514400   -4.317700
  C      4.103400   -6.609600   -4.267500
  C      5.038300   -6.710200   -3.231000
  C      5.950000   -7.865000   -3.126500
  C      5.069800   -5.654600   -2.302700
  N      4.281100   -4.595200   -2.349900
  H      1.720500   -3.374700   -4.119800
  H      2.537200   -5.419200   -5.109400
  H      4.043400   -7.384500   -5.017300
  H      5.380700   -8.791100   -3.027800
  H      6.632400   -7.782100   -2.286000
  H      6.527100   -7.983000   -4.045200
  H      5.782900   -5.691900   -1.491000
  N      4.603200   -0.638700   -0.589200
  C      5.547100   -0.077600   -1.252200
  C      6.251000   -0.738200   -2.317800
  C      7.330100   -0.116100   -2.958800
  C      7.975100   -0.766400   -3.991600
  C      7.528200   -2.031000   -4.391000
  C      8.177200   -2.763200   -5.494800
  C      6.438800   -2.569500   -3.683700
  N      5.823500   -1.961600   -2.684500
  H      5.860900    0.943700   -1.030000
  H      7.660500    0.859500   -2.636600
  H      8.816700   -0.308900   -4.490600
  H      7.731400   -3.738300   -5.666600
  H      9.243500   -2.887300   -5.298400
  H      8.124000   -2.184000   -6.418600
  H      6.067900   -3.547200   -3.958100
  Zn     0.891800    4.012400   -1.185800
  N     -1.009000    3.107200   -0.469000
  C     -1.984700    3.657900   -1.093600
  C     -1.794000    4.619200   -2.145700
  C     -2.889500    5.256400   -2.742700
  C     -2.677400    6.160200   -3.764300
  C     -1.370600    6.411700   -4.197200
  C     -1.091600    7.360200   -5.291700
  C     -0.340400    5.722900   -3.532600
  N     -0.531500    4.867000   -2.544000
  H     -3.019500    3.414600   -0.847200
  H     -3.890000    5.049500   -2.395300
  H     -3.507600    6.671000   -4.229300
  H     -1.512400    8.341500   -5.066000
  H     -1.591300    7.040800   -6.208200
  H     -0.029400    7.465900   -5.490600
  H      0.683600    5.894900   -3.833400
  N      2.108200    3.354900    0.555900
  C      2.279500    4.358000    1.336600
  C      1.665700    5.638100    1.108000
  C      1.947500    6.727900    1.941900
  C      1.328400    7.939900    1.710500
  C      0.416500    8.053600    0.655100
  C     -0.278600    9.323500    0.372400
  C      0.203800    6.902600   -0.124200
  N      0.801800    5.741900    0.080000
  H      2.910400    4.279600    2.223500
  H      2.653800    6.620800    2.750800
  H      1.541300    8.795300    2.334400
  H     -0.869400    9.634000    1.236300
  H     -0.931400    9.257300   -0.492700
  H      0.441200   10.128700    0.216400
  H     -0.488500    6.951800   -0.953000
  N      1.459400    2.305700   -2.493100
  C      2.335500    2.711300   -3.337700
  C      2.886700    4.039100   -3.312500
  C      3.778900    4.464500   -4.305200
  C      4.306900    5.738600   -4.245200
  C      3.953200    6.578100   -3.182900
  C      4.496700    7.944500   -3.068000
  C      3.050300    6.057800   -2.238900
  N      2.528100    4.845100   -2.294800
  H      2.705000    2.052800   -4.125300
  H      4.039600    3.802800   -5.117000
  H      4.986800    6.089700   -5.007300
  H      4.106400    8.476800   -2.205900
  H      4.282800    8.519900   -3.970300
  H      5.585900    7.916100   -3.000800
  H      2.747600    6.677700   -1.406600

----------------------------
CARTESIAN COORDINATES (A.U.)
----------------------------
  NO LB      ZA    FRAG     MASS         X           Y           Z
   0 C     6.0000    0    12.011    0.646664   -4.975838    4.918012
   1 C     6.0000    0    12.011    3.143370   -5.339043    4.175728
   2 C     6.0000    0    12.011    3.708210   -6.201325    1.749508
   3 C     6.0000    0    12.011    1.748942   -6.730638    0.077101
   4 C     6.0000    0    12.011   -0.761560   -6.374235    0.798031
   5 C     6.0000    0    12.011   -1.300132   -5.513654    3.224062
   6 H     1.0000    0     1.008    4.627372   -4.971680    5.520457
   7 H     1.0000    0     1.008    2.207956   -7.450245   -1.771618
   8 H     1.0000    0     1.008   -3.248250   -5.301627    3.777185
   9 C     6.0000    0    12.011   -1.787492    2.083423    4.981696
  10 C     6.0000    0    12.011   -3.373539    0.093541    4.317268
  11 C     6.0000    0    12.011   -4.480163    0.003024    1.926387
  12 C     6.0000    0    12.011   -4.013589    1.941694    0.211460
  13 C     6.0000    0    12.011   -2.427542    3.946693    0.854534
  14 C     6.0000    0    12.011   -1.334903    4.014912    3.245794
  15 H     1.0000    0     1.008   -3.753941   -1.356445    5.695068
  16 H     1.0000    0     1.008   -4.925382    1.879144   -1.607968
  17 H     1.0000    0     1.008   -0.159682    5.602660    3.739579
  18 C     6.0000    0    12.011    5.545779    0.662916    4.832786
  19 C     6.0000    0    12.011    4.592223    3.021294    4.165523
  20 C     6.0000    0    12.011    4.990011    3.992424    1.747430
  21 C     6.0000    0    12.011    6.381983    2.596484    0.006614
  22 C     6.0000    0    12.011    7.347255    0.229980    0.651767
  23 C     6.0000    0    12.011    6.937374   -0.717907    3.070427
  24 H     1.0000    0     1.008    3.569504    4.094092    5.561842
  25 H     1.0000    0     1.008    6.725535    3.392814   -1.835680
  26 H     1.0000    0     1.008    7.741830   -2.522217    3.563835
  27 C     6.0000    0    12.011   -1.287092   -1.337926   -4.693135
  28 C     6.0000    0    12.011    0.532336   -3.236156   -4.745291
  29 C     6.0000    0    12.011    3.098017   -2.632389   -4.782897
  30 C     6.0000    0    12.011    3.831798   -0.106958   -4.802361
  31 C     6.0000    0    12.011    2.026542    1.813192   -4.750583
  32 C     6.0000    0    12.011   -0.527234    1.186181   -4.712599
  33 H     1.0000    0     1.008   -0.080124   -5.177661   -4.787810
  34 H     1.0000    0     1.008    5.817522    0.334293   -4.890044
  35 H     1.0000    0     1.008   -1.903521    2.686624   -4.730740
  36 Zn   30.0000    0    65.380    1.562237   -0.754001    9.504756
  37 N     7.0000    0    14.007    0.115273   -4.053274    7.341775
  38 C     6.0000    0    12.011   -1.558646   -5.182196    8.683103
  39 C     6.0000    0    12.011   -2.400897   -4.239223   11.088346
  40 C     6.0000    0    12.011   -4.116957   -5.617022   12.559687
  41 C     6.0000    0    12.011   -4.920469   -4.647781   14.844366
  42 C     6.0000    0    12.011   -4.028518   -2.287513   15.636350
  43 C     6.0000    0    12.011   -4.842990   -1.160859   18.052365
  44 C     6.0000    0    12.011   -2.310379   -1.056924   14.025736
  45 N     7.0000    0    14.007   -1.508190   -1.980244   11.848394
  46 H     1.0000    0     1.008   -2.428109   -6.938507    8.041919
  47 H     1.0000    0     1.008   -4.783842   -7.434183   11.917369
  48 H     1.0000    0     1.008   -6.224947   -5.691099   16.017130
  49 H     1.0000    0     1.008   -4.447848   -2.441337   19.619893
  50 H     1.0000    0     1.008   -6.889753   -0.904234   18.071640
  51 H     1.0000    0     1.008   -3.945748    0.647609   18.419161
  52 H     1.0000    0     1.008   -1.568473    0.765150   14.576592
  53 N     7.0000    0    14.007    5.080151   -0.309726    7.250312
  54 C     6.0000    0    12.011    6.932082   -1.223031    8.520019
  55 C     6.0000    0    12.011    6.605727   -2.476675   10.908255
  56 C     6.0000    0    12.011    8.698598   -3.306643   12.300794
  57 C     6.0000    0    12.011    8.327078   -4.538933   14.569788
  58 C     6.0000    0    12.011    5.860986   -4.964688   15.424701
  59 C     6.0000    0    12.011    5.363043   -6.288820   17.826354
  60 C     6.0000    0    12.011    3.890379   -4.055541   13.891377
  61 N     7.0000    0    14.007    4.225806   -2.850085   11.730097
  62 H     1.0000    0     1.008    8.868674   -1.082813    7.825923
  63 H     1.0000    0     1.008   10.586246   -2.960823   11.610666
  64 H     1.0000    0     1.008    9.916149   -5.173503   15.682459
  65 H     1.0000    0     1.008    6.317543   -5.339988   19.389157
  66 H     1.0000    0     1.008    6.167121   -8.187994   17.779866
  67 H     1.0000    0     1.008    3.359744   -6.428092   18.247573
  68 H     1.0000    0     1.008    1.958323   -4.336166   14.492877
  69 N     7.0000    0    14.007   -0.644586    2.116115    7.369365
  70 C     6.0000    0    12.011   -0.742851    4.149461    8.685181
  71 C     6.0000    0    12.011    0.573343    4.443691   11.044126
  72 C     6.0000    0    12.011    0.284782    6.640687   12.492602
  73 C     6.0000    0    12.011    1.600598    6.887107   14.731549
  74 C     6.0000    0    12.011    3.225763    4.947303   15.499723
  75 C     6.0000    0    12.011    4.687655    5.127016   17.866227
  76 C     6.0000    0    12.011    3.381098    2.820038   13.915187
  77 N     7.0000    0    14.007    2.109501    2.553587   11.782442
  78 H     1.0000    0     1.008   -1.850798    5.770846    8.056091
  79 H     1.0000    0     1.008   -0.977366    8.116185   11.868992
  80 H     1.0000    0     1.008    1.386681    8.555924   15.886739
  81 H     1.0000    0     1.008    5.819034    3.452719   18.221495
  82 H     1.0000    0     1.008    3.433065    5.447702   19.471360
  83 H     1.0000    0     1.008    5.930716    6.772589   17.819551
  84 H     1.0000    0     1.008    4.606774    1.275376   14.449413
  85 Zn   30.0000    0    65.380   -6.048446   -4.565011   -2.118572
  86 N     7.0000    0    14.007   -2.736323   -6.848556   -0.900077
  87 C     6.0000    0    12.011   -2.748796   -8.939916   -2.125375
  88 C     6.0000    0    12.011   -4.554996   -9.493228   -4.078407
  89 C     6.0000    0    12.011   -4.593357  -11.862945   -5.257974
  90 C     6.0000    0    12.011   -6.323402  -12.328006   -7.154314
  91 C     6.0000    0    12.011   -7.990329  -10.410123   -7.886583
  92 C     6.0000    0    12.011   -9.860780  -10.805265   -9.915015
  93 C     6.0000    0    12.011   -7.802868   -8.101445   -6.584373
  94 N     7.0000    0    14.007   -6.172223   -7.645643   -4.748693
  95 H     1.0000    0     1.008   -1.361926  -10.413336   -1.728344
  96 H     1.0000    0     1.008   -3.292659  -13.318412   -4.667246
  97 H     1.0000    0     1.008   -6.398235  -14.149702   -8.071587
  98 H     1.0000    0     1.008  -11.062646  -12.425894   -9.487748
  99 H     1.0000    0     1.008   -8.913082  -11.290736  -11.681909
 100 H     1.0000    0     1.008  -11.041859   -9.157046  -10.228332
 101 H     1.0000    0     1.008   -9.066339   -6.576625   -7.086095
 102 N     7.0000    0    14.007   -6.030494   -2.026164    1.228889
 103 C     6.0000    0    12.011   -7.792853   -2.725930    2.738969
 104 C     6.0000    0    12.011   -9.321830   -4.928595    2.299041
 105 C     6.0000    0    12.011  -11.329097   -5.531228    3.916457
 106 C     6.0000    0    12.011  -12.743368   -7.676634    3.467458
 107 C     6.0000    0    12.011  -12.125995   -9.230556    1.418428
 108 C     6.0000    0    12.011  -13.566911  -11.552085    0.867951
 109 C     6.0000    0    12.011  -10.079988   -8.460304   -0.092219
 110 N     7.0000    0    14.007   -8.731480   -6.396345    0.305191
 111 H     1.0000    0     1.008   -8.212750   -1.657101    4.451439
 112 H     1.0000    0     1.008  -11.776962   -4.309520    5.486820
 113 H     1.0000    0     1.008  -14.312786   -8.161727    4.678773
 114 H     1.0000    0     1.008  -12.889066  -12.519814   -0.809559
 115 H     1.0000    0     1.008  -15.571154  -11.124629    0.637783
 116 H     1.0000    0     1.008  -13.475259  -12.851083    2.467982
 117 H     1.0000    0     1.008   -9.551243   -9.604155   -1.700187
 118 N     7.0000    0    14.007   -3.854474   -1.976087   -4.596948
 119 C     6.0000    0    12.011   -5.387042   -0.892518   -6.130838
 120 C     6.0000    0    12.011   -8.079335   -1.242495   -6.017644
 121 C     6.0000    0    12.011   -9.666327   -0.144942   -7.830080
 122 C     6.0000    0    12.011  -12.246937   -0.482258   -7.653391
 123 C     6.0000    0    12.011  -13.235075   -1.891238   -5.645368
 124 C     6.0000    0    12.011  -15.978957   -2.291293   -5.361720
 125 C     6.0000    0    12.011  -11.485000   -2.915469   -3.927985
 126 N     7.0000    0    14.007   -9.010025   -2.626908   -4.095414
 127 H     1.0000    0     1.008   -4.697103    0.363394   -7.613518
 128 H     1.0000    0     1.008   -8.869052    0.935414   -9.365105
 129 H     1.0000    0     1.008  -13.500770    0.329001   -9.044418
 130 H     1.0000    0     1.008  -16.766595   -3.150362   -7.063229
 131 H     1.0000    0     1.008  -16.953111   -0.482636   -5.173314
 132 H     1.0000    0     1.008  -16.440239   -3.463301   -3.741847
 133 H     1.0000    0     1.008  -12.173238   -4.025873   -2.357433
 134 Zn   30.0000    0    65.380    8.342385   -5.190700   -2.400897
 135 N     7.0000    0    14.007    6.220789   -6.514264    0.976799
 136 C     6.0000    0    12.011    7.746176   -7.723689    2.421117
 137 C     6.0000    0    12.011   10.406155   -7.935527    1.908434
 138 C     6.0000    0    12.011   11.971793   -9.406301    3.455553
 139 C     6.0000    0    12.011   14.525380   -9.544818    2.940414
 140 C     6.0000    0    12.011   15.510683   -8.185916    0.896864
 141 C     6.0000    0    12.011   18.227731   -8.255836    0.279113
 142 C     6.0000    0    12.011   13.782907   -6.769188   -0.541218
 143 N     7.0000    0    14.007   11.331365   -6.645600   -0.080880
 144 H     1.0000    0     1.008    7.074568   -8.659292    4.131508
 145 H     1.0000    0     1.008   11.177163  -10.440926    5.023081
 146 H     1.0000    0     1.008   15.760316  -10.686590    4.096548
 147 H     1.0000    0     1.008   19.344371   -7.565330    1.870262
 148 H     1.0000    0     1.008   18.685990   -7.143732   -1.383280
 149 H     1.0000    0     1.008   18.855309  -10.198474   -0.013984
 150 H     1.0000    0     1.008   14.468499   -5.702816   -2.143327
 151 N     7.0000    0    14.007    4.936343   -4.537421   -4.775527
 152 C     6.0000    0    12.011    4.723181   -6.375558   -6.341165
 153 C     6.0000    0    12.011    6.374802   -8.533058   -6.314898
 154 C     6.0000    0    12.011    6.169011  -10.420706   -8.159271
 155 C     6.0000    0    12.011    7.754302  -12.490334   -8.064406
 156 C     6.0000    0    12.011    9.521007  -12.680440   -6.105705
 157 C     6.0000    0    12.011   11.243870  -14.862696   -5.908229
 158 C     6.0000    0    12.011    9.580534  -10.685645   -4.351472
 159 N     7.0000    0    14.007    8.090107   -8.683670   -4.440667
 160 H     1.0000    0     1.008    3.251274   -6.377259   -7.785294
 161 H     1.0000    0     1.008    4.794613  -10.240804   -9.655367
 162 H     1.0000    0     1.008    7.640919  -13.954683   -9.481323
 163 H     1.0000    0     1.008   10.168049  -16.612771   -5.721713
 164 H     1.0000    0     1.008   12.533420  -14.706038   -4.319914
 165 H     1.0000    0     1.008   12.334431  -15.085684   -7.644320
 166 H     1.0000    0     1.008   10.928097  -10.756132   -2.817582
 167 N     7.0000    0    14.007    8.698787   -1.206968   -1.113427
 168 C     6.0000    0    12.011   10.482500   -0.146643   -2.366315
 169 C     6.0000    0    12.011   11.812678   -1.394996   -4.380007
 170 C     6.0000    0    12.011   13.851882   -0.219397   -5.591322
 171 C     6.0000    0    12.011   15.070755   -1.448286   -7.543031
 172 C     6.0000    0    12.011   14.226236   -3.838034   -8.297787
 173 C     6.0000    0    12.011   15.452669   -5.221691  -10.383667
 174 C     6.0000    0    12.011   12.167569   -4.855651   -6.961184
 175 N     7.0000    0    14.007   11.004820   -3.706887   -5.072970
 176 H     1.0000    0     1.008   11.075496    1.783335   -1.946418
 177 H     1.0000    0     1.008   14.476247    1.624220   -4.982452
 178 H     1.0000    0     1.008   16.661148   -0.583736   -8.486004
 179 H     1.0000    0     1.008   14.610229   -7.064363  -10.708322
 180 H     1.0000    0     1.008   17.467684   -5.456206  -10.012525
 181 H     1.0000    0     1.008   15.352135   -4.127162  -12.129396
 182 H     1.0000    0     1.008   11.466669   -6.703237   -7.479725
 183 Zn   30.0000    0    65.380    1.685258    7.582337   -2.240837
 184 N     7.0000    0    14.007   -1.906734    5.871757   -0.886282
 185 C     6.0000    0    12.011   -3.750539    6.912429   -2.066605
 186 C     6.0000    0    12.011   -3.390169    8.729023   -4.054785
 187 C     6.0000    0    12.011   -5.460364    9.933156   -5.182952
 188 C     6.0000    0    12.011   -5.059553   11.641091   -7.113496
 189 C     6.0000    0    12.011   -2.590059   12.116357   -7.931559
 190 C     6.0000    0    12.011   -2.062825   13.908762   -9.999864
 191 C     6.0000    0    12.011   -0.643263   10.814714   -6.675647
 192 N     7.0000    0    14.007   -1.004389    9.197297   -4.807463
 193 H     1.0000    0     1.008   -5.706028    6.452659   -1.600976
 194 H     1.0000    0     1.008   -7.351035    9.542172   -4.526461
 195 H     1.0000    0     1.008   -6.628403   12.606363   -7.992219
 196 H     1.0000    0     1.008   -2.858022   15.763151   -9.573353
 197 H     1.0000    0     1.008   -3.007121   13.305184  -11.731798
 198 H     1.0000    0     1.008   -0.055558   14.108506  -10.375730
 199 H     1.0000    0     1.008    1.291817   11.139747   -7.244076
 200 N     7.0000    0    14.007    3.983921    6.339842    1.050499
 201 C     6.0000    0    12.011    4.307631    8.235426    2.525808
 202 C     6.0000    0    12.011    3.147717   10.654465    2.093817
 203 C     6.0000    0    12.011    3.680242   12.713888    3.669659
 204 C     6.0000    0    12.011    2.510312   15.004237    3.232377
 205 C     6.0000    0    12.011    0.787071   15.219098    1.237960
 206 C     6.0000    0    12.011   -0.526478   17.618862    0.703734
 207 C     6.0000    0    12.011    0.385126   13.044024   -0.234704
 208 N     7.0000    0    14.007    1.515182   10.850618    0.151178
 209 H     1.0000    0     1.008    5.499859    8.087272    4.201806
 210 H     1.0000    0     1.008    5.014955   12.511499    5.198259
 211 H     1.0000    0     1.008    2.912635   16.620708    4.411377
 212 H     1.0000    0     1.008   -1.642928   18.205622    2.336268
 213 H     1.0000    0     1.008   -1.760091   17.493762   -0.931068
 214 H     1.0000    0     1.008    0.833747   19.140469    0.408937
 215 H     1.0000    0     1.008   -0.923131   13.136998   -1.800909
 216 N     7.0000    0    14.007    2.757866    4.357142   -4.711276
 217 C     6.0000    0    12.011    4.413455    5.123614   -6.307339
 218 C     6.0000    0    12.011    5.455072    7.632793   -6.259718
 219 C     6.0000    0    12.011    7.141086    8.436682   -8.135649
 220 C     6.0000    0    12.011    8.138861   10.844382   -8.022265
 221 C     6.0000    0    12.011    7.470465   12.430807   -6.014809
 222 C     6.0000    0    12.011    8.497532   15.012929   -5.797680
 223 C     6.0000    0    12.011    5.764232   11.447583   -4.230908
 224 N     7.0000    0    14.007    4.777417    9.155912   -4.336544
 225 H     1.0000    0     1.008    5.111709    3.879230   -7.795687
 226 H     1.0000    0     1.008    7.633738    7.186251   -9.669729
 227 H     1.0000    0     1.008    9.423686   11.507865   -9.462426
 228 H     1.0000    0     1.008    7.759971   16.018830   -4.168547
 229 H     1.0000    0     1.008    8.093319   16.100278   -7.502780
 230 H     1.0000    0     1.008   10.555821   14.959261   -5.670690
 231 H     1.0000    0     1.008    5.192212   12.619024   -2.658089

--------------------------------
INTERNAL COORDINATES (ANGSTROEM)
--------------------------------
 C      0   0   0     0.000000000000     0.00000000     0.00000000
 C      1   0   0     1.391690382233     0.00000000     0.00000000
 C      2   1   0     1.394973157448   120.55493409     0.00000000
 C      3   2   1     1.391630428670   119.43986403   359.16381352
 C      4   3   2     1.394999806452   120.55612143     0.84055758
 C      5   4   3     1.391674027925   119.44226705   359.14264813
 H      2   1   3     1.077433065206   118.72551027   181.02116801
 H      4   3   2     1.077534194353   118.72220181   181.87119419
 H      6   5   4     1.077504960545   118.72432605   181.89016772
 C      1   2   3     3.951587612593   116.25860771   257.89068680
 C     10   1   2     1.391709757816    58.61147077   145.00565448
 C     11  10   1     1.394974125208   120.54942391   240.55667690
 C     12  11  10     1.391756684913   119.44646929   359.14417735
 C     13  12  11     1.394972967480   120.55186611     0.85114895
 C     14  13  12     1.391709599737   119.43936305   359.15117496
 H     11  10   1     1.077431106846   118.72113156    61.58218092
 H     13  12  11     1.077444058873   118.72353098   181.87553756
 H     15  14  13     1.077484728430   118.71941541   181.86815576
 C      7   2   1     3.042885817772   102.37022720   273.54126560
 C     19   7   2     1.391691334312   148.33709894    28.07938709
 C     20  19   7     1.394912047407   120.55749639   262.10592572
 C     21  20  19     1.391713580447   119.44078142   359.15477039
 C     22  21  20     1.394892787995   120.55317109     0.86220672
 C     23  22  21     1.391686811032   119.44575200   359.13441647
 H     20  19   7     1.077568531463   118.72220909    83.13646345
 H     22  21  20     1.077524575126   118.72429724   181.89246969
 H     24  23  22     1.077514148399   118.72832738   181.87687626
 C     17  13  12     3.044721433892   102.30732314   273.53145753
 C     28  17  13     1.391677351256   148.39490457    28.14918844
 C     29  28  17     1.394928510713   120.55227512   262.08861880
 C     30  29  28     1.391706844131   119.44651397   359.13736219
 C     31  30  29     1.394922241560   120.54779597     0.85803170
 C     32  31  30     1.391681432656   119.44797867   359.15807404
 H     29  28  17     1.077542491042   118.72011550    83.10885515
 H     31  30  29     1.077430206556   118.72063662   181.88292351
 H     33  32  31     1.077473456750   118.72123496   181.86106233
 Zn     1   2   3     3.334252974806    99.20986246   203.98022061
 N      1   2   3     1.400883806745   119.80880764   181.47393640
 C     38   1   2     1.282709803502   118.87823727   228.10359395
 C     39  38   1     1.437939265060   122.83598103   186.01002355
 C     40  39  38     1.400874862363   120.81576493   184.01949638
 C     41  40  39     1.380413869099   119.54269132   180.93483393
 C     42  41  40     1.399439105499   119.34143477     0.78436146
 C     43  42  41     1.475051758414   121.45040319   179.56316908
 C     43  42  41     1.406101479268   116.73726879   359.16348975
 N     45  43  42     1.321550244977   124.39844488     0.11364401
 H     39  38   1     1.091146580437   121.05183792     6.03763825
 H     41  40  39     1.079233515047   120.04330380     1.72574503
 H     42  41  40     1.080033730955   120.67692848   180.75755424
 H     44  43  42     1.091299601393   110.60155130    56.09001385
 H     44  43  42     1.091627816612   110.38281944   300.22383907
 H     44  43  42     1.085798715232   112.54539293   178.43318489
 H     45  43  42     1.081105290894   118.97471527   180.38673045
 N     19   7   2     1.400798893489    60.17472412   127.44475972
 C     54  19   7     1.282742569653   118.84360732    84.72382721
 C     55  54  19     1.437746601457   122.85443329   186.05827335
 C     56  55  54     1.400883471242   120.80267614   183.95148211
 C     57  56  55     1.380422565738   119.54118105   180.97832915
 C     58  57  56     1.399446622776   119.34337962     0.76899831
 C     59  58  57     1.474991372856   121.44023672   179.54475313
 C     59  58  57     1.406150422252   116.73912613   359.16119323
 N     61  59  58     1.321541656551   124.39717485     0.12497964
 H     55  54  19     1.091159919535   121.03664453     6.06647695
 H     57  56  55     1.079194722930   120.03848437     1.75635134
 H     58  57  56     1.080074020612   120.67444253   180.74246708
 H     60  59  58     1.091402501372   110.58939319    56.21711373
 H     60  59  58     1.091641154409   110.38340619   300.35975770
 H     60  59  58     1.085784559662   112.55365346   178.55162759
 H     61  59  58     1.081049906341   118.97753020   180.40337337
 N     10   1   2     1.400897776428    83.02923498   276.44308558
 C     70  10   1     1.282697817103   118.84597795   180.56548369
 C     71  70  10     1.437917810586   122.85072867   186.06377224
 C     72  71  70     1.400884827529   120.80152213   183.99510597
 C     73  72  71     1.380430690038   119.53971823   180.94669978
 C     74  73  72     1.399480082030   119.33921474     0.77920333
 C     75  74  73     1.475044494244   121.43961568   179.55887474
 C     75  74  73     1.406072395007   116.73964624   359.16815165
 N     77  75  74     1.321519341516   124.39805409     0.11621902
 H     71  70  10     1.091207633771   121.04795245     6.06199828
 H     73  72  71     1.079184437434   120.03916820     1.73200598
 H     74  73  72     1.079984972118   120.67601340   180.75349223
 H     76  75  74     1.085717131669   112.55685319   178.45914754
 H     76  75  74     1.091348551105   110.59462747    56.11429840
 H     76  75  74     1.091605959126   110.38086756   300.26085649
 H     77  75  74     1.081084645160   118.97703907   180.39701482
 Zn    12  11  10     3.333738674521   135.37678007   145.61064904
 N      5   4   3     1.400895413655   120.71364325   178.49299687
 C     87   5   4     1.282673383991   118.86085565    48.74288581
 C     88  87   5     1.437848298674   122.85192585   186.09723265
 C     89  88  87     1.400911749540   120.80918745   183.96500922
 C     90  89  88     1.380477348601   119.54315665   180.99185817
 C     91  90  89     1.399385104251   119.34263611     0.77340185
 C     92  91  90     1.474996410165   121.44618345   179.54059703
 C     92  91  90     1.406147339364   116.74006551   359.15067461
 N     94  92  91     1.321511184213   124.39332976     0.14030083
 H     88  87   5     1.091184361142   121.04571758     6.08314114
 H     90  89  88     1.079205119521   120.03491891     1.76985937
 H     91  90  89     1.080035795703   120.67280879   180.73914476
 H     93  92  91     1.091372974743   110.59074760    56.27502018
 H     93  92  91     1.091661513474   110.38832610   300.41342987
 H     93  92  91     1.085747429193   112.55268723   178.60235153
 H     94  92  91     1.081019805554   118.98114655   180.40712189
 N     12  11  10     1.400834540551   120.74025927   178.49831338
 C    103  12  11     1.282741462649   118.87709793    48.69907815
 C    104 103  12     1.437867173977   122.83788207   185.98207937
 C    105 104 103     1.400903586975   120.81548563   184.04599126
 C    106 105 104     1.380384877489   119.54746461   180.87937698
 C    107 106 105     1.399505866369   119.34312618     0.77276854
 C    108 107 106     1.474948877080   121.44799497   179.58634467
 C    108 107 106     1.406206745113   116.73522311   359.19842030
 N    110 108 107     1.321496080206   124.39272490     0.08168035
 H    104 103  12     1.091088740662   121.05192925     6.02312060
 H    106 105 104     1.079209085395   120.03902025     1.67221715
 H    107 106 105     1.080049137771   120.67837467   180.75910709
 H    109 108 107     1.085782386116   112.55173536   178.41470631
 H    109 108 107     1.091271753506   110.59951937    56.06908731
 H    109 108 107     1.091683058401   110.38418289   300.20233984
 H    110 108 107     1.081067500205   118.97496273   180.37086906
 N     28  17  13     1.400866182046    60.13504574   127.46598037
 C    119  28  17     1.282717993169   118.84370485    84.69704670
 C    120 119  28     1.437935026349   122.85379718   186.04225355
 C    121 120 119     1.400880255411   120.80008521   184.00733431
 C    122 121 120     1.380386851575   119.54272848   180.93973404
 C    123 122 121     1.399450795848   119.33857539     0.78478142
 C    124 123 122     1.475008779635   121.43647247   179.56315698
 C    124 123 122     1.406180162710   116.74376264   359.17148651
 N    126 124 123     1.321545057877   124.39008745     0.10117844
 H    120 119  28     1.091140838755   121.04703813     6.05406547
 H    122 121 120     1.079199606190   120.03912848     1.73008843
 H    123 122 121     1.079987939747   120.67775370   180.75652279
 H    125 124 123     1.091376910146   110.59585659    56.11587629
 H    125 124 123     1.091659631021   110.38403934   300.25584826
 H    125 124 123     1.085829033504   112.55757754   178.45849783
 H    126 124 123     1.081037746797   118.97939225   180.38023074
 Zn    23  22  21     3.333934158018   135.37278960   145.61134956
 N      3   2   1     1.400877842640   120.70924460   178.53877810
 C    136   3   2     1.282702744208   118.83810094    48.74010969
 C    137 136   3     1.437883117642   122.85508988   186.06870974
 C    138 137 136     1.400868598406   120.79769190   183.98194481
 C    139 138 137     1.380469246307   119.53907140   180.96714839
 C    140 139 138     1.399424428113   119.34176765     0.78761197
 C    141 140 139     1.474958118049   121.43772701   179.54420444
 C    141 140 139     1.406099420382   116.73912595   359.15225149
 N    143 141 140     1.321591998311   124.39625519     0.12462284
 H    137 136   3     1.091164139807   121.04230108     6.05894199
 H    139 138 137     1.079188004937   120.04142311     1.76117840
 H    140 139 138     1.080008856445   120.67352661   180.76026200
 H    142 141 140     1.091624463815   110.38445125   300.34325552
 H    142 141 140     1.085822540750   112.56127509   178.53687528
 H    142 141 140     1.091389215633   110.59442142    56.20187550
 H    143 141 140     1.081121255919   118.97989242   180.39190713
 N     30  29  28     1.400935637351   120.73067415   178.49131269
 C    152  30  29     1.282685222492   118.87003169    48.70202061
 C    153 152  30     1.437897110366   122.84873099   186.07307781
 C    154 153 152     1.400798493717   120.81126989   183.97431324
 C    155 154 153     1.380484078141   119.54784173   180.99863663
 C    156 155 154     1.399460831892   119.33546712     0.77590242
 C    157 156 155     1.475018704966   121.44395224   179.51964411
 C    157 156 155     1.406067032541   116.74230988   359.13905743
 N    159 157 156     1.321591423247   124.39234287     0.15050337
 H    153 152  30     1.091186354387   121.04789921     6.07907640
 H    155 154 153     1.079266982725   120.03891591     1.77818445
 H    156 155 154     1.079939836287   120.68028415   180.74708067
 H    158 157 156     1.091560987760   110.38167143   300.18794671
 H    158 157 156     1.085809568939   112.55196178   178.39284720
 H    158 157 156     1.091319430781   110.60148250    56.04845240
 H    159 157 156     1.081091943361   118.98434534   180.41515770
 N     23  22  21     1.400807627763   120.73692238   178.49731643
 C    168  23  22     1.282711744703   118.87624385    48.71836617
 C    169 168  23     1.437835501718   122.84264044   186.02316468
 C    170 169 168     1.400837685101   120.81077443   183.98537015
 C    171 170 169     1.380431428938   119.54302220   180.92222281
 C    172 171 170     1.399447437384   119.34115995     0.76525579
 C    173 172 171     1.475022806603   121.44172667   179.58200036
 C    173 172 171     1.406075353600   116.73933094   359.19099952
 N    175 173 172     1.321566169361   124.39454170     0.09736616
 H    169 168  23     1.091282259546   121.04671563     6.05297295
 H    171 170 169     1.079246199901   120.04380645     1.70414972
 H    172 171 170     1.080091574821   120.67637735   180.74876479
 H    174 173 172     1.085851228300   112.55227845   178.55169978
 H    174 173 172     1.091315472263   110.59024866    56.21936895
 H    174 173 172     1.091654395860   110.39230933   300.35456819
 H    175 173 172     1.081091790737   118.97885831   180.37682178
 Zn    32  31  30     3.334166219612   135.38956185   145.65511794
 N     14  13  12     1.400826359689   120.73437490   178.52128589
 C    185  14  13     1.282726058050   118.86642218    48.71917972
 C    186 185  14     1.437838165441   122.85037665   186.05489949
 C    187 186 185     1.400911521118   120.81100928   184.01111647
 C    188 187 186     1.380401177195   119.54026300   180.96326999
 C    189 188 187     1.399421630532   119.34618281     0.78842574
 C    190 189 188     1.474931693334   121.45085764   179.52256187
 C    190 189 188     1.406218560537   116.73635239   359.14503383
 N    192 190 189     1.321519572311   124.39224516     0.12239058
 H    186 185  14     1.091200664406   121.04121570     6.05561850
 H    188 187 186     1.079117519087   120.04111070     1.75483675
 H    189 188 187     1.079987814746   120.67737897   180.75604455
 H    191 190 189     1.091312430058   110.60011067    56.04424275
 H    191 190 189     1.091644951438   110.38123024   300.18197032
 H    191 190 189     1.085818833876   112.55559872   178.39052569
 H    192 190 189     1.081036835635   118.98037328   180.39905722
 N     21  20  19     1.400901152830   120.71853945   178.52786971
 C    201  21  20     1.282593384514   118.84804519    48.74356262
 C    202 201  21     1.437937554277   122.85137882   186.05089468
 C    203 202 201     1.400879898492   120.80022559   183.98306295
 C    204 203 202     1.380498015210   119.53768816   180.95300168
 C    205 204 203     1.399413612911   119.33909378     0.77564659
 C    206 205 204     1.475035358898   121.43743300   179.55355456
 C    206 205 204     1.406183053518   116.74503316   359.16601469
 N    208 206 205     1.321562003842   124.38980099     0.12364400
 H    202 201  21     1.091225448750   121.04712197     6.05603695
 H    204 203 202     1.079189191013   120.04168068     1.74109960
 H    205 204 203     1.079947582061   120.67395209   180.75780998
 H    207 206 205     1.091685898049   110.37902886   300.22966133
 H    207 206 205     1.085784642551   112.55279176   178.44251190
 H    207 206 205     1.091235574933   110.59861170    56.09059903
 H    208 206 205     1.081022372571   118.98019151   180.39802581
 N     32  31  30     1.400876896804   120.73695063   178.52251154
 C    217  32  31     1.282736032861   118.86594918    48.67128443
 C    218 217  32     1.437883625333   122.83836309   186.00606308
 C    219 218 217     1.400870904116   120.80689612   184.01661368
 C    220 219 218     1.380476298239   119.54218671   180.90527549
 C    221 220 219     1.399408885923   119.34005282     0.77105420
 C    222 221 220     1.475006176258   121.44814216   179.57971820
 C    222 221 220     1.406085523715   116.74091965   359.19111728
 N    224 222 221     1.321536582922   124.39531399     0.09349043
 H    218 217  32     1.091084900455   121.04798447     6.04038885
 H    220 219 218     1.079273190624   120.04473193     1.70137793
 H    221 220 219     1.079968346758   120.67516305   180.75801936
 H    223 222 221     1.085768755307   112.55377689   178.44726332
 H    223 222 221     1.091321978153   110.59755864    56.10580931
 H    223 222 221     1.091640526914   110.38607499   300.24539784
 H    224 222 221     1.081030337225   118.98035812   180.37069697

---------------------------
INTERNAL COORDINATES (A.U.)
---------------------------
 C      0   0   0     0.000000000000     0.00000000     0.00000000
 C      1   0   0     2.629913685633     0.00000000     0.00000000
 C      2   1   0     2.636117231748   120.55493409     0.00000000
 C      3   2   1     2.629800389818   119.43986403   359.16381352
 C      4   3   2     2.636167591067   120.55612143     0.84055758
 C      5   4   3     2.629882780469   119.44226705   359.14264813
 H      2   1   3     2.036053420871   118.72551027   181.02116801
 H      4   3   2     2.036244527263   118.72220181   181.87119419
 H      6   5   4     2.036189283372   118.72432605   181.89016772
 C      1   2   3     7.467418381997   116.25860771   257.89068680
 C     10   1   2     2.629950300178    58.61147077   145.00565448
 C     11  10   1     2.636119060550   120.54942391   240.55667690
 C     12  11  10     2.630038979540   119.44646929   359.14417735
 C     13  12  11     2.636116872761   120.55186611     0.85114895
 C     14  13  12     2.629950001452   119.43936305   359.15117496
 H     11  10   1     2.036049720107   118.72113156    61.58218092
 H     13  12  11     2.036074195890   118.72353098   181.87553756
 H     15  14  13     2.036151050215   118.71941541   181.86815576
 C      7   2   1     5.750220852383   102.37022720   273.54126560
 C     19   7   2     2.629915484802   148.33709894    28.07938709
 C     20  19   7     2.636001750506   120.55749639   262.10592572
 C     21  20  19     2.629957523903   119.44078142   359.15477039
 C     22  21  20     2.635965355492   120.55317109     0.86220672
 C     23  22  21     2.629906937040   119.44575200   359.13441647
 H     20  19   7     2.036309414997   118.72220909    83.13646345
 H     22  21  20     2.036226349558   118.72429724   181.89246969
 H     24  23  22     2.036206645899   118.72832738   181.87687626
 C     17  13  12     5.753689664135   102.30732314   273.53145753
 C     28  17  13     2.629889060656   148.39490457    28.14918844
 C     29  28  17     2.636032861646   120.55227512   262.08861880
 C     30  29  28     2.629944794111   119.44651397   359.13736219
 C     31  30  29     2.636021014665   120.54779597     0.85803170
 C     32  31  30     2.629896773383   119.44797867   359.15807404
 H     29  28  17     2.036260205732   118.72011550    83.10885515
 H     31  30  29     2.036048018806   118.72063662   181.88292351
 H     33  32  31     2.036129749826   118.72123496   181.86106233
 Zn     1   2   3     6.300824983595    99.20986246   203.98022061
 N      1   2   3     2.647286740193   119.80880764   181.47393640
 C     38   1   2     2.423970237915   118.87823727   228.10359395
 C     39  38   1     2.717311408175   122.83598103   186.01002355
 C     40  39  38     2.647269837760   120.81576493   184.01949638
 C     41  40  39     2.608604164063   119.54269132   180.93483393
 C     42  41  40     2.644556650493   119.34143477     0.78436146
 C     43  42  41     2.787443856761   121.45040319   179.56316908
 C     43  42  41     2.657146712318   116.73726879   359.16348975
 N     45  43  42     2.497368035224   124.39844488     0.11364401
 H     39  38   1     2.061968208991   121.05183792     6.03763825
 H     41  40  39     2.039455777987   120.04330380     1.72574503
 H     42  41  40     2.040967966902   120.67692848   180.75755424
 H     44  43  42     2.062257376690   110.60155130    56.09001385
 H     44  43  42     2.062877613566   110.38281944   300.22383907
 H     44  43  42     2.051862208352   112.54539293   178.43318489
 H     45  43  42     2.042992921724   118.97471527   180.38673045
 N     19   7   2     2.647126277394    60.17472412   127.44475972
 C     54  19   7     2.424032156967   118.84360732    84.72382721
 C     55  54  19     2.716947326729   122.85443329   186.05827335
 C     56  55  54     2.647286106185   120.80267614   183.95148211
 C     57  56  55     2.608620598331   119.54118105   180.97832915
 C     58  57  56     2.644570856088   119.34337962     0.76899831
 C     59  58  57     2.787329744595   121.44023672   179.54475313
 C     59  58  57     2.657239201154   116.73912613   359.16119323
 N     61  59  58     2.497351805450   124.39717485     0.12497964
 H     55  54  19     2.061993416233   121.03664453     6.06647695
 H     57  56  55     2.039382471511   120.03848437     1.75635134
 H     58  57  56     2.041044103319   120.67444253   180.74246708
 H     60  59  58     2.062451829469   110.58939319    56.21711373
 H     60  59  58     2.062902818351   110.38340619   300.35975770
 H     60  59  58     2.051835458201   112.55365346   178.55162759
 H     61  59  58     2.042888260086   118.97753020   180.40337337
 N     10   1   2     2.647313139068    83.02923498   276.44308558
 C     70  10   1     2.423947586903   118.84597795   180.56548369
 C     71  70  10     2.717270865095   122.85072867   186.06377224
 C     72  71  70     2.647288669195   120.80152213   183.99510597
 C     73  72  71     2.608635951033   119.53971823   180.94669978
 C     74  73  72     2.644634084915   119.33921474     0.77920333
 C     75  74  73     2.787430129470   121.43961568   179.55887474
 C     75  74  73     2.657091751029   116.73964624   359.16815165
 N     77  75  74     2.497309636145   124.39805409     0.11621902
 H     71  70  10     2.062083583071   121.04795245     6.06199828
 H     73  72  71     2.039363034740   120.03916820     1.73200598
 H     74  73  72     2.040875826053   120.67601340   180.75349223
 H     76  75  74     2.051708037761   112.55685319   178.45914754
 H     76  75  74     2.062349878241   110.59462747    56.11429840
 H     76  75  74     2.062836308905   110.38086756   300.26085649
 H     77  75  74     2.042953906939   118.97703907   180.39701482
 Zn    12  11  10     6.299853096907   135.37678007   145.61064904
 N      5   4   3     2.647308674075   120.71364325   178.49299687
 C     87   5   4     2.423901415014   118.86085565    48.74288581
 C     88  87   5     2.717139506619   122.85192585   186.09723265
 C     89  88  87     2.647339544424   120.80918745   183.96500922
 C     90  89  88     2.608724122937   119.54315665   180.99185817
 C     91  90  89     2.644454602924   119.34263611     0.77340185
 C     92  91  90     2.787339263729   121.44618345   179.54059703
 C     92  91  90     2.657233375340   116.74006551   359.15067461
 N     94  92  91     2.497294221076   124.39332976     0.14030083
 H     88  87   5     2.062039604175   121.04571758     6.08314114
 H     90  89  88     2.039402118220   120.03491891     1.76985937
 H     91  90  89     2.040971868711   120.67280879   180.73914476
 H     93  92  91     2.062396032228   110.59074760    56.27502018
 H     93  92  91     2.062941291408   110.38832610   300.41342987
 H     93  92  91     2.051765291785   112.55268723   178.60235153
 H     94  92  91     2.042831377842   118.98114655   180.40712189
 N     12  11  10     2.647193640578   120.74025927   178.49831338
 C    103  12  11     2.424030065033   118.87709793    48.69907815
 C    104 103  12     2.717175175771   122.83788207   185.98207937
 C    105 104 103     2.647324119411   120.81548563   184.04599126
 C    106 105 104     2.608549377860   119.54746461   180.87937698
 C    107 106 105     2.644682810253   119.34312618     0.77276854
 C    108 107 106     2.787249439216   121.44799497   179.58634467
 C    108 107 106     2.657345635936   116.73522311   359.19842030
 N    110 108 107     2.497265678640   124.39272490     0.08168035
 H    104 103  12     2.061858907657   121.05192925     6.02312060
 H    106 105 104     2.039409612637   120.03902025     1.67221715
 H    107 106 105     2.040997081565   120.67837467   180.75910709
 H    109 108 107     2.051831350795   112.55173536   178.41470631
 H    109 108 107     2.062204751810   110.59951937    56.06908731
 H    109 108 107     2.062982005420   110.38418289   300.20233984
 H    110 108 107     2.042921507671   118.97496273   180.37086906
 N     28  17  13     2.647253434339    60.13504574   127.46598037
 C    119  28  17     2.423985714143   118.84370485    84.69704670
 C    120 119  28     2.717303398172   122.85379718   186.04225355
 C    121 120 119     2.647280029144   120.80008521   184.00733431
 C    122 121 120     2.608553108342   119.54272848   180.93973404
 C    123 122 121     2.644578742051   119.33857539     0.78478142
 C    124 123 122     2.787362638639   121.43647247   179.56315698
 C    124 123 122     2.657295402475   116.74376264   359.17148651
 N    126 124 123     2.497358233025   124.39008745     0.10117844
 H    120 119  28     2.061957358785   121.04703813     6.05406547
 H    122 121 120     2.039391699534   120.03912848     1.73008843
 H    123 122 121     2.040881434061   120.67775370   180.75652279
 H    125 124 123     2.062403469061   110.59585659    56.11587629
 H    125 124 123     2.062937734086   110.38403934   300.25584826
 H    125 124 123     2.051919501583   112.55757754   178.45849783
 H    126 124 123     2.042865281878   118.97939225   180.38023074
 Zn    23  22  21     6.300222507180   135.37278960   145.61134956
 N      3   2   1     2.647275469668   120.70924460   178.53877810
 C    136   3   2     2.423956897783   118.83810094    48.74010969
 C    137 136   3     2.717205304932   122.85508988   186.06870974
 C    138 137 136     2.647258000597   120.79769190   183.98194481
 C    139 138 137     2.608708811821   119.53907140   180.96714839
 C    140 139 138     2.644528914253   119.34176765     0.78761197
 C    141 140 139     2.787266902117   121.43772701   179.54420444
 C    141 140 139     2.657142821588   116.73912595   359.15225149
 N    143 141 140     2.497446937590   124.39625519     0.12462284
 H    137 136   3     2.062001391390   121.04230108     6.05894199
 H    139 138 137     2.039369776344   120.04142311     1.76117840
 H    140 139 138     2.040920960891   120.67352661   180.76026200
 H    142 141 140     2.062871277700   110.38445125   300.34325552
 H    142 141 140     2.051907232055   112.56127509   178.53687528
 H    142 141 140     2.062426723061   110.59442142    56.20187550
 H    143 141 140     2.043023091248   118.97989242   180.39190713
 N     30  29  28     2.647384685844   120.73067415   178.49131269
 C    152  30  29     2.423923786538   118.87003169    48.70202061
 C    153 152  30     2.717231747349   122.84873099   186.07307781
 C    154 153 152     2.647125521935   120.81126989   183.97431324
 C    155 154 153     2.608736839925   119.54784173   180.99863663
 C    156 155 154     2.644597707426   119.33546712     0.77590242
 C    157 156 155     2.787381394797   121.44395224   179.51964411
 C    157 156 155     2.657081617439   116.74230988   359.13905743
 N    159 157 156     2.497445850876   124.39234287     0.15050337
 H    153 152  30     2.062043370863   121.04789921     6.07907640
 H    155 154 153     2.039519022733   120.03891591     1.77818445
 H    156 155 154     2.040790531695   120.68028415   180.74708067
 H    158 157 156     2.062751325339   110.38167143   300.18794671
 H    158 157 156     2.051882718886   112.55196178   178.39284720
 H    158 157 156     2.062294848803   110.60148250    56.04845240
 H    159 157 156     2.042967698541   118.98434534   180.41515770
 N     23  22  21     2.647142782781   120.73692238   178.49731643
 C    168  23  22     2.423973906254   118.87624385    48.71836617
 C    169 168  23     2.717115323876   122.84264044   186.02316468
 C    170 169 168     2.647199582918   120.81077443   183.98537015
 C    171 170 169     2.608637347351   119.54302220   180.92222281
 C    172 171 170     2.644572395473   119.34115995     0.76525579
 C    173 172 171     2.787389145768   121.44172667   179.58200036
 C    173 172 171     2.657097341960   116.73933094   359.19099952
 N    175 173 172     2.497398127948   124.39454170     0.09736616
 H    169 168  23     2.062224605349   121.04671563     6.05297295
 H    171 170 169     2.039479748887   120.04380645     1.70414972
 H    172 171 170     2.041077275968   120.67637735   180.74876479
 H    174 173 172     2.051961443668   112.55227845   178.55169978
 H    174 173 172     2.062287368287   110.59024866    56.21936895
 H    174 173 172     2.062927841066   110.39230933   300.35456819
 H    175 173 172     2.042967410124   118.97885831   180.37682178
 Zn    32  31  30     6.300661040038   135.38956185   145.65511794
 N     14  13  12     2.647178180990   120.73437490   178.52128589
 C    185  14  13     2.424000954559   118.86642218    48.71917972
 C    186 185  14     2.717120357584   122.85037665   186.05489949
 C    187 186 185     2.647339112767   120.81100928   184.01111647
 C    188 187 186     2.608580179840   119.54026300   180.96326999
 C    189 188 187     2.644523627590   119.34618281     0.78842574
 C    190 189 188     2.787216966641   121.45085764   179.52256187
 C    190 189 188     2.657367963853   116.73635239   359.14503383
 N    192 190 189     2.497310072284   124.39224516     0.12239058
 H    186 185  14     2.062070412880   121.04121570     6.05561850
 H    188 187 186     2.039236577391   120.04111070     1.75483675
 H    189 188 187     2.040881197842   120.67737897   180.75604455
 H    191 190 189     2.062281619354   110.60011067    56.04424275
 H    191 190 189     2.062909993696   110.38123024   300.18197032
 H    191 190 189     2.051900227080   112.55559872   178.39052569
 H    192 190 189     2.042863560031   118.98037328   180.39905722
 N     21  20  19     2.647319519543   120.71853945   178.52786971
 C    201  21  20     2.423750237911   118.84804519    48.74356262
 C    202 201  21     2.717308175264   122.85137882   186.05089468
 C    203 202 201     2.647279354666   120.80022559   183.98306295
 C    204 203 202     2.608763177170   119.53768816   180.95300168
 C    205 204 203     2.644508476483   119.33909378     0.77564659
 C    206 205 204     2.787412866168   121.43743300   179.55355456
 C    206 205 204     2.657300865309   116.74503316   359.16601469
 N    208 206 205     2.497390256258   124.38980099     0.12364400
 H    202 201  21     2.062117248503   121.04712197     6.05603695
 H    204 203 202     2.039372017703   120.04168068     1.74109960
 H    205 204 203     2.040805169086   120.67395209   180.75780998
 H    207 206 205     2.062987371577   110.37902886   300.22966133
 H    207 206 205     2.051835614839   112.55279176   178.44251190
 H    207 206 205     2.062136384216   110.59861170    56.09059903
 H    208 206 205     2.042836228802   118.98019151   180.39802581
 N     32  31  30     2.647273682298   120.73695063   178.52251154
 C    217  32  31     2.424019804220   118.86594918    48.67128443
 C    218 217  32     2.717206264329   122.83836309   186.00606308
 C    219 218 217     2.647262357759   120.80689612   184.01661368
 C    220 219 218     2.608722138041   119.54218671   180.90527549
 C    221 220 219     2.644499543770   119.34005282     0.77105420
 C    222 221 220     2.787357718970   121.44814216   179.57971820
 C    222 221 220     2.657116560692   116.74091965   359.19111728
 N    224 222 221     2.497342217680   124.39531399     0.09349043
 H    218 217  32     2.061851650716   121.04798447     6.04038885
 H    220 219 218     2.039530753963   120.04473193     1.70137793
 H    221 220 219     2.040844408677   120.67516305   180.75801936
 H    223 222 221     2.051805592298   112.55377689   178.44726332
 H    223 222 221     2.062299662639   110.59755864    56.10580931
 H    223 222 221     2.062901632556   110.38607499   300.24539784
 H    224 222 221     2.042851279815   118.98035812   180.37069697

---------------------
BASIS SET INFORMATION
---------------------
There are 4 groups of distinct atoms

 Group   1 Type C   : 11s6p1d contracted to 5s3p1d pattern {62111/411/1}
 Group   2 Type H   : 4s1p contracted to 2s1p pattern {31/1}
 Group   3 Type Zn  : 17s11p6d contracted to 6s4p3d pattern {842111/6311/411}
 Group   4 Type N   : 11s6p2d contracted to 5s3p2d pattern {62111/411/11}

Atom   0C    basis set group =>   1
Atom   1C    basis set group =>   1
Atom   2C    basis set group =>   1
Atom   3C    basis set group =>   1
Atom   4C    basis set group =>   1
Atom   5C    basis set group =>   1
Atom   6H    basis set group =>   2
Atom   7H    basis set group =>   2
Atom   8H    basis set group =>   2
Atom   9C    basis set group =>   1
Atom  10C    basis set group =>   1
Atom  11C    basis set group =>   1
Atom  12C    basis set group =>   1
Atom  13C    basis set group =>   1
Atom  14C    basis set group =>   1
Atom  15H    basis set group =>   2
Atom  16H    basis set group =>   2
Atom  17H    basis set group =>   2
Atom  18C    basis set group =>   1
Atom  19C    basis set group =>   1
Atom  20C    basis set group =>   1
Atom  21C    basis set group =>   1
Atom  22C    basis set group =>   1
Atom  23C    basis set group =>   1
Atom  24H    basis set group =>   2
Atom  25H    basis set group =>   2
Atom  26H    basis set group =>   2
Atom  27C    basis set group =>   1
Atom  28C    basis set group =>   1
Atom  29C    basis set group =>   1
Atom  30C    basis set group =>   1
Atom  31C    basis set group =>   1
Atom  32C    basis set group =>   1
Atom  33H    basis set group =>   2
Atom  34H    basis set group =>   2
Atom  35H    basis set group =>   2
Atom  36Zn   basis set group =>   3
Atom  37N    basis set group =>   4
Atom  38C    basis set group =>   1
Atom  39C    basis set group =>   1
Atom  40C    basis set group =>   1
Atom  41C    basis set group =>   1
Atom  42C    basis set group =>   1
Atom  43C    basis set group =>   1
Atom  44C    basis set group =>   1
Atom  45N    basis set group =>   4
Atom  46H    basis set group =>   2
Atom  47H    basis set group =>   2
Atom  48H    basis set group =>   2
Atom  49H    basis set group =>   2
Atom  50H    basis set group =>   2
Atom  51H    basis set group =>   2
Atom  52H    basis set group =>   2
Atom  53N    basis set group =>   4
Atom  54C    basis set group =>   1
Atom  55C    basis set group =>   1
Atom  56C    basis set group =>   1
Atom  57C    basis set group =>   1
Atom  58C    basis set group =>   1
Atom  59C    basis set group =>   1
Atom  60C    basis set group =>   1
Atom  61N    basis set group =>   4
Atom  62H    basis set group =>   2
Atom  63H    basis set group =>   2
Atom  64H    basis set group =>   2
Atom  65H    basis set group =>   2
Atom  66H    basis set group =>   2
Atom  67H    basis set group =>   2
Atom  68H    basis set group =>   2
Atom  69N    basis set group =>   4
Atom  70C    basis set group =>   1
Atom  71C    basis set group =>   1
Atom  72C    basis set group =>   1
Atom  73C    basis set group =>   1
Atom  74C    basis set group =>   1
Atom  75C    basis set group =>   1
Atom  76C    basis set group =>   1
Atom  77N    basis set group =>   4
Atom  78H    basis set group =>   2
Atom  79H    basis set group =>   2
Atom  80H    basis set group =>   2
Atom  81H    basis set group =>   2
Atom  82H    basis set group =>   2
Atom  83H    basis set group =>   2
Atom  84H    basis set group =>   2
Atom  85Zn   basis set group =>   3
Atom  86N    basis set group =>   4
Atom  87C    basis set group =>   1
Atom  88C    basis set group =>   1
Atom  89C    basis set group =>   1
Atom  90C    basis set group =>   1
Atom  91C    basis set group =>   1
Atom  92C    basis set group =>   1
Atom  93C    basis set group =>   1
Atom  94N    basis set group =>   4
Atom  95H    basis set group =>   2
Atom  96H    basis set group =>   2
Atom  97H    basis set group =>   2
Atom  98H    basis set group =>   2
Atom  99H    basis set group =>   2
Atom 100H    basis set group =>   2
Atom 101H    basis set group =>   2
Atom 102N    basis set group =>   4
Atom 103C    basis set group =>   1
Atom 104C    basis set group =>   1
Atom 105C    basis set group =>   1
Atom 106C    basis set group =>   1
Atom 107C    basis set group =>   1
Atom 108C    basis set group =>   1
Atom 109C    basis set group =>   1
Atom 110N    basis set group =>   4
Atom 111H    basis set group =>   2
Atom 112H    basis set group =>   2
Atom 113H    basis set group =>   2
Atom 114H    basis set group =>   2
Atom 115H    basis set group =>   2
Atom 116H    basis set group =>   2
Atom 117H    basis set group =>   2
Atom 118N    basis set group =>   4
Atom 119C    basis set group =>   1
Atom 120C    basis set group =>   1
Atom 121C    basis set group =>   1
Atom 122C    basis set group =>   1
Atom 123C    basis set group =>   1
Atom 124C    basis set group =>   1
Atom 125C    basis set group =>   1
Atom 126N    basis set group =>   4
Atom 127H    basis set group =>   2
Atom 128H    basis set group =>   2
Atom 129H    basis set group =>   2
Atom 130H    basis set group =>   2
Atom 131H    basis set group =>   2
Atom 132H    basis set group =>   2
Atom 133H    basis set group =>   2
Atom 134Zn   basis set group =>   3
Atom 135N    basis set group =>   4
Atom 136C    basis set group =>   1
Atom 137C    basis set group =>   1
Atom 138C    basis set group =>   1
Atom 139C    basis set group =>   1
Atom 140C    basis set group =>   1
Atom 141C    basis set group =>   1
Atom 142C    basis set group =>   1
Atom 143N    basis set group =>   4
Atom 144H    basis set group =>   2
Atom 145H    basis set group =>   2
Atom 146H    basis set group =>   2
Atom 147H    basis set group =>   2
Atom 148H    basis set group =>   2
Atom 149H    basis set group =>   2
Atom 150H    basis set group =>   2
Atom 151N    basis set group =>   4
Atom 152C    basis set group =>   1
Atom 153C    basis set group =>   1
Atom 154C    basis set group =>   1
Atom 155C    basis set group =>   1
Atom 156C    basis set group =>   1
Atom 157C    basis set group =>   1
Atom 158C    basis set group =>   1
Atom 159N    basis set group =>   4
Atom 160H    basis set group =>   2
Atom 161H    basis set group =>   2
Atom 162H    basis set group =>   2
Atom 163H    basis set group =>   2
Atom 164H    basis set group =>   2
Atom 165H    basis set group =>   2
Atom 166H    basis set group =>   2
Atom 167N    basis set group =>   4
Atom 168C    basis set group =>   1
Atom 169C    basis set group =>   1
Atom 170C    basis set group =>   1
Atom 171C    basis set group =>   1
Atom 172C    basis set group =>   1
Atom 173C    basis set group =>   1
Atom 174C    basis set group =>   1
Atom 175N    basis set group =>   4
Atom 176H    basis set group =>   2
Atom 177H    basis set group =>   2
Atom 178H    basis set group =>   2
Atom 179H    basis set group =>   2
Atom 180H    basis set group =>   2
Atom 181H    basis set group =>   2
Atom 182H    basis set group =>   2
Atom 183Zn   basis set group =>   3
Atom 184N    basis set group =>   4
Atom 185C    basis set group =>   1
Atom 186C    basis set group =>   1
Atom 187C    basis set group =>   1
Atom 188C    basis set group =>   1
Atom 189C    basis set group =>   1
Atom 190C    basis set group =>   1
Atom 191C    basis set group =>   1
Atom 192N    basis set group =>   4
Atom 193H    basis set group =>   2
Atom 194H    basis set group =>   2
Atom 195H    basis set group =>   2
Atom 196H    basis set group =>   2
Atom 197H    basis set group =>   2
Atom 198H    basis set group =>   2
Atom 199H    basis set group =>   2
Atom 200N    basis set group =>   4
Atom 201C    basis set group =>   1
Atom 202C    basis set group =>   1
Atom 203C    basis set group =>   1
Atom 204C    basis set group =>   1
Atom 205C    basis set group =>   1
Atom 206C    basis set group =>   1
Atom 207C    basis set group =>   1
Atom 208N    basis set group =>   4
Atom 209H    basis set group =>   2
Atom 210H    basis set group =>   2
Atom 211H    basis set group =>   2
Atom 212H    basis set group =>   2
Atom 213H    basis set group =>   2
Atom 214H    basis set group =>   2
Atom 215H    basis set group =>   2
Atom 216N    basis set group =>   4
Atom 217C    basis set group =>   1
Atom 218C    basis set group =>   1
Atom 219C    basis set group =>   1
Atom 220C    basis set group =>   1
Atom 221C    basis set group =>   1
Atom 222C    basis set group =>   1
Atom 223C    basis set group =>   1
Atom 224N    basis set group =>   4
Atom 225H    basis set group =>   2
Atom 226H    basis set group =>   2
Atom 227H    basis set group =>   2
Atom 228H    basis set group =>   2
Atom 229H    basis set group =>   2
Atom 230H    basis set group =>   2
Atom 231H    basis set group =>   2
---------------------------------
AUXILIARY/J BASIS SET INFORMATION
---------------------------------
There are 4 groups of distinct atoms

 Group   1 Type C   : 12s5p4d2f1g contracted to 6s4p3d1f1g pattern {711111/2111/211/2/1}
 Group   2 Type H   : 5s2p1d contracted to 3s1p1d pattern {311/2/1}
 Group   3 Type Zn  : 19s5p5d3f3g contracted to 8s5p5d2f3g pattern {121111111/11111/11111/21/111}
 Group   4 Type N   : 12s5p4d2f1g contracted to 6s4p3d1f1g pattern {711111/2111/211/2/1}

Atom   0C    basis set group =>   1
Atom   1C    basis set group =>   1
Atom   2C    basis set group =>   1
Atom   3C    basis set group =>   1
Atom   4C    basis set group =>   1
Atom   5C    basis set group =>   1
Atom   6H    basis set group =>   2
Atom   7H    basis set group =>   2
Atom   8H    basis set group =>   2
Atom   9C    basis set group =>   1
Atom  10C    basis set group =>   1
Atom  11C    basis set group =>   1
Atom  12C    basis set group =>   1
Atom  13C    basis set group =>   1
Atom  14C    basis set group =>   1
Atom  15H    basis set group =>   2
Atom  16H    basis set group =>   2
Atom  17H    basis set group =>   2
Atom  18C    basis set group =>   1
Atom  19C    basis set group =>   1
Atom  20C    basis set group =>   1
Atom  21C    basis set group =>   1
Atom  22C    basis set group =>   1
Atom  23C    basis set group =>   1
Atom  24H    basis set group =>   2
Atom  25H    basis set group =>   2
Atom  26H    basis set group =>   2
Atom  27C    basis set group =>   1
Atom  28C    basis set group =>   1
Atom  29C    basis set group =>   1
Atom  30C    basis set group =>   1
Atom  31C    basis set group =>   1
Atom  32C    basis set group =>   1
Atom  33H    basis set group =>   2
Atom  34H    basis set group =>   2
Atom  35H    basis set group =>   2
Atom  36Zn   basis set group =>   3
Atom  37N    basis set group =>   4
Atom  38C    basis set group =>   1
Atom  39C    basis set group =>   1
Atom  40C    basis set group =>   1
Atom  41C    basis set group =>   1
Atom  42C    basis set group =>   1
Atom  43C    basis set group =>   1
Atom  44C    basis set group =>   1
[...]
129 H      0.8110     1.0000     0.1890     0.9554     0.9554    -0.0000
130 H      0.7815     1.0000     0.2185     0.9415     0.9415     0.0000
131 H      0.7799     1.0000     0.2201     0.9413     0.9413    -0.0000
132 H      0.8353     1.0000     0.1647     0.9605     0.9605    -0.0000
133 H      0.8467     1.0000     0.1533     0.9658     0.9658    -0.0000
134 Zn    29.5951    30.0000     0.4049     2.5917     2.5917     0.0000
135 N      6.9310     7.0000     0.0690     2.9995     2.9995    -0.0000
136 C      6.2040     6.0000    -0.2040     3.9065     3.9065    -0.0000
137 C      5.7921     6.0000     0.2079     3.5848     3.5848    -0.0000
138 C      6.0855     6.0000    -0.0855     3.7189     3.7189     0.0000
139 C      6.1453     6.0000    -0.1453     3.8233     3.8233     0.0000
140 C      5.8346     6.0000     0.1654     3.4534     3.4534    -0.0000
141 C      6.4799     6.0000    -0.4799     3.7825     3.7825     0.0000
142 C      6.1509     6.0000    -0.1509     3.9491     3.9491     0.0000
143 N      6.9975     7.0000     0.0025     3.2094     3.2094    -0.0000
144 H      0.8429     1.0000     0.1571     0.9678     0.9678     0.0000
145 H      0.8231     1.0000     0.1769     0.9596     0.9596     0.0000
146 H      0.8110     1.0000     0.1890     0.9554     0.9554    -0.0000
147 H      0.7800     1.0000     0.2200     0.9413     0.9413    -0.0000
148 H      0.8353     1.0000     0.1647     0.9605     0.9605     0.0000
149 H      0.7815     1.0000     0.2185     0.9415     0.9415    -0.0000
150 H      0.8466     1.0000     0.1534     0.9658     0.9658    -0.0000
151 N      6.9314     7.0000     0.0686     2.9996     2.9996     0.0000
152 C      6.2032     6.0000    -0.2032     3.9055     3.9055     0.0000
153 C      5.7932     6.0000     0.2068     3.5858     3.5858     0.0000
154 C      6.0850     6.0000    -0.0850     3.7186     3.7186    -0.0000
155 C      6.1456     6.0000    -0.1456     3.8235     3.8235    -0.0000
156 C      5.8345     6.0000     0.1655     3.4530     3.4530     0.0000
157 C      6.4801     6.0000    -0.4801     3.7826     3.7826    -0.0000
158 C      6.1512     6.0000    -0.1512     3.9496     3.9496    -0.0000
159 N      6.9960     7.0000     0.0040     3.2094     3.2094     0.0000
160 H      0.8431     1.0000     0.1569     0.9679     0.9679     0.0000
161 H      0.8230     1.0000     0.1770     0.9595     0.9595    -0.0000
162 H      0.8110     1.0000     0.1890     0.9554     0.9554     0.0000
163 H      0.7799     1.0000     0.2201     0.9413     0.9413    -0.0000
164 H      0.8353     1.0000     0.1647     0.9605     0.9605     0.0000
165 H      0.7816     1.0000     0.2184     0.9415     0.9415    -0.0000
166 H      0.8464     1.0000     0.1536     0.9657     0.9657     0.0000
167 N      6.9300     7.0000     0.0700     3.0001     3.0001    -0.0000
168 C      6.2041     6.0000    -0.2041     3.9058     3.9058    -0.0000
169 C      5.7919     6.0000     0.2081     3.5844     3.5844     0.0000
170 C      6.0853     6.0000    -0.0853     3.7192     3.7192    -0.0000
171 C      6.1455     6.0000    -0.1455     3.8239     3.8239    -0.0000
172 C      5.8353     6.0000     0.1647     3.4545     3.4545    -0.0000
173 C      6.4797     6.0000    -0.4797     3.7825     3.7825    -0.0000
174 C      6.1496     6.0000    -0.1496     3.9489     3.9489    -0.0000
175 N      6.9972     7.0000     0.0028     3.2107     3.2107     0.0000
176 H      0.8431     1.0000     0.1569     0.9679     0.9679    -0.0000
177 H      0.8231     1.0000     0.1769     0.9595     0.9595    -0.0000
178 H      0.8110     1.0000     0.1890     0.9554     0.9554    -0.0000
179 H      0.8353     1.0000     0.1647     0.9605     0.9605     0.0000
180 H      0.7815     1.0000     0.2185     0.9415     0.9415    -0.0000
181 H      0.7800     1.0000     0.2200     0.9413     0.9413     0.0000
182 H      0.8467     1.0000     0.1533     0.9659     0.9659     0.0000
183 Zn    29.5948    30.0000     0.4052     2.5912     2.5912     0.0000
184 N      6.9314     7.0000     0.0686     2.9987     2.9987    -0.0000
185 C      6.2037     6.0000    -0.2037     3.9059     3.9059     0.0000
186 C      5.7920     6.0000     0.2080     3.5845     3.5845     0.0000
187 C      6.0858     6.0000    -0.0858     3.7195     3.7195    -0.0000
188 C      6.1453     6.0000    -0.1453     3.8234     3.8234     0.0000
189 C      5.8348     6.0000     0.1652     3.4535     3.4535     0.0000
190 C      6.4799     6.0000    -0.4799     3.7826     3.7826    -0.0000
191 C      6.1504     6.0000    -0.1504     3.9490     3.9490    -0.0000
192 N      6.9972     7.0000     0.0028     3.2094     3.2094     0.0000
193 H      0.8429     1.0000     0.1571     0.9678     0.9678     0.0000
194 H      0.8230     1.0000     0.1770     0.9595     0.9595    -0.0000
195 H      0.8110     1.0000     0.1890     0.9554     0.9554     0.0000
196 H      0.7816     1.0000     0.2184     0.9415     0.9415    -0.0000
197 H      0.7798     1.0000     0.2202     0.9413     0.9413    -0.0000
198 H      0.8354     1.0000     0.1646     0.9605     0.9605    -0.0000
199 H      0.8467     1.0000     0.1533     0.9658     0.9658    -0.0000
200 N      6.9301     7.0000     0.0699     2.9986     2.9986    -0.0000
201 C      6.2045     6.0000    -0.2045     3.9070     3.9070     0.0000
202 C      5.7925     6.0000     0.2075     3.5854     3.5854    -0.0000
203 C      6.0853     6.0000    -0.0853     3.7191     3.7191     0.0000
204 C      6.1455     6.0000    -0.1455     3.8236     3.8236    -0.0000
205 C      5.8351     6.0000     0.1649     3.4544     3.4544     0.0000
206 C      6.4800     6.0000    -0.4800     3.7824     3.7824     0.0000
207 C      6.1504     6.0000    -0.1504     3.9493     3.9493    -0.0000
208 N      6.9962     7.0000     0.0038     3.2096     3.2096     0.0000
209 H      0.8431     1.0000     0.1569     0.9679     0.9679     0.0000
210 H      0.8231     1.0000     0.1769     0.9595     0.9595     0.0000
211 H      0.8110     1.0000     0.1890     0.9554     0.9554    -0.0000
212 H      0.7799     1.0000     0.2201     0.9413     0.9413    -0.0000
213 H      0.8353     1.0000     0.1647     0.9605     0.9605    -0.0000
214 H      0.7816     1.0000     0.2184     0.9415     0.9415    -0.0000
215 H      0.8465     1.0000     0.1535     0.9658     0.9658    -0.0000
216 N      6.9302     7.0000     0.0698     3.0003     3.0003     0.0000
217 C      6.2049     6.0000    -0.2049     3.9061     3.9061     0.0000
218 C      5.7915     6.0000     0.2085     3.5834     3.5834     0.0000
219 C      6.0854     6.0000    -0.0854     3.7192     3.7192     0.0000
220 C      6.1454     6.0000    -0.1454     3.8235     3.8235     0.0000
221 C      5.8345     6.0000     0.1655     3.4534     3.4534    -0.0000
222 C      6.4802     6.0000    -0.4802     3.7824     3.7824    -0.0000
223 C      6.1508     6.0000    -0.1508     3.9496     3.9496    -0.0000
224 N      6.9966     7.0000     0.0034     3.2098     3.2098     0.0000
225 H      0.8431     1.0000     0.1569     0.9679     0.9679     0.0000
226 H      0.8231     1.0000     0.1769     0.9596     0.9596    -0.0000
227 H      0.8110     1.0000     0.1890     0.9554     0.9554    -0.0000
228 H      0.8353     1.0000     0.1647     0.9605     0.9605    -0.0000
229 H      0.7815     1.0000     0.2185     0.9415     0.9415     0.0000
230 H      0.7798     1.0000     0.2202     0.9413     0.9413    -0.0000
231 H      0.8467     1.0000     0.1533     0.9658     0.9658    -0.0000

  Mayer bond orders larger than 0.100000
B(  0-C ,  1-C ) :   1.4951 B(  0-C ,  5-C ) :   1.1784 B(  0-C , 37-N ) :   0.7111 
B(  1-C ,  2-C ) :   1.1788 B(  1-C ,  6-H ) :   0.8680 B(  2-C ,  3-C ) :   1.4950 
B(  2-C ,135-N ) :   0.7120 B(  3-C ,  4-C ) :   1.1779 B(  3-C ,  7-H ) :   0.8685 
B(  4-C ,  5-C ) :   1.4960 B(  4-C , 86-N ) :   0.7124 B(  5-C ,  8-H ) :   0.8678 
B(  9-C , 10-C ) :   1.4950 B(  9-C , 14-C ) :   1.1796 B(  9-C , 69-N ) :   0.7122 
B( 10-C , 11-C ) :   1.1789 B( 10-C , 15-H ) :   0.8679 B( 11-C , 12-C ) :   1.4946 
B( 11-C ,102-N ) :   0.7117 B( 12-C , 13-C ) :   1.1794 B( 12-C , 16-H ) :   0.8679 
B( 13-C , 14-C ) :   1.4949 B( 13-C ,184-N ) :   0.7112 B( 14-C , 17-H ) :   0.8680 
B( 18-C , 19-C ) :   1.4954 B( 18-C , 23-C ) :   1.1792 B( 18-C , 53-N ) :   0.7120 
B( 19-C , 20-C ) :   1.1802 B( 19-C , 24-H ) :   0.8672 B( 20-C , 21-C ) :   1.4934 
B( 20-C ,200-N ) :   0.7114 B( 21-C , 22-C ) :   1.1798 B( 21-C , 25-H ) :   0.8683 
B( 22-C , 23-C ) :   1.4945 B( 22-C ,167-N ) :   0.7124 B( 23-C , 26-H ) :   0.8678 
B( 27-C , 28-C ) :   1.4951 B( 27-C , 32-C ) :   1.1798 B( 27-C ,118-N ) :   0.7115 
B( 28-C , 29-C ) :   1.1784 B( 28-C , 33-H ) :   0.8683 B( 29-C , 30-C ) :   1.4946 
B( 29-C ,151-N ) :   0.7128 B( 30-C , 31-C ) :   1.1787 B( 30-C , 34-H ) :   0.8681 
B( 31-C , 32-C ) :   1.4943 B( 31-C ,216-N ) :   0.7123 B( 32-C , 35-H ) :   0.8677 
B( 36-Zn, 37-N ) :   0.3624 B( 36-Zn, 45-N ) :   0.4514 B( 36-Zn, 53-N ) :   0.3620 
B( 36-Zn, 61-N ) :   0.4506 B( 36-Zn, 69-N ) :   0.3615 B( 36-Zn, 77-N ) :   0.4508 
B( 37-N , 38-C ) :   1.8120 B( 37-N , 39-C ) :  -0.1190 B( 38-C , 39-C ) :   0.9715 
B( 38-C , 46-H ) :   0.9216 B( 39-C , 40-C ) :   1.3253 B( 39-C , 45-N ) :   1.2396 
B( 40-C , 41-C ) :   1.3867 B( 40-C , 47-H ) :   0.9125 B( 41-C , 42-C ) :   1.2924 
B( 41-C , 48-H ) :   0.9724 B( 42-C , 43-C ) :   0.9043 B( 42-C , 44-C ) :   1.2378 
B( 43-C , 49-H ) :   0.9348 B( 43-C , 50-H ) :   0.9270 B( 43-C , 51-H ) :   0.9689 
B( 44-C , 45-N ) :   1.4451 B( 44-C , 52-H ) :   0.9379 B( 53-N , 54-C ) :   1.8119 
B( 53-N , 55-C ) :  -0.1189 B( 54-C , 55-C ) :   0.9720 B( 54-C , 62-H ) :   0.9216 
B( 55-C , 56-C ) :   1.3252 B( 55-C , 61-N ) :   1.2396 B( 56-C , 57-C ) :   1.3868 
B( 56-C , 63-H ) :   0.9123 B( 57-C , 58-C ) :   1.2924 B( 57-C , 64-H ) :   0.9724 
B( 58-C , 59-C ) :   0.9044 B( 58-C , 60-C ) :   1.2379 B( 59-C , 65-H ) :   0.9346 
B( 59-C , 66-H ) :   0.9271 B( 59-C , 67-H ) :   0.9688 B( 60-C , 61-N ) :   1.4458 
B( 60-C , 68-H ) :   0.9377 B( 69-N , 70-C ) :   1.8124 B( 69-N , 71-C ) :  -0.1193 
B( 70-C , 71-C ) :   0.9710 B( 70-C , 78-H ) :   0.9218 B( 71-C , 72-C ) :   1.3249 
B( 71-C , 77-N ) :   1.2399 B( 72-C , 73-C ) :   1.3866 B( 72-C , 79-H ) :   0.9126 
B( 73-C , 74-C ) :   1.2922 B( 73-C , 80-H ) :   0.9724 B( 74-C , 75-C ) :   0.9044 
B( 74-C , 76-C ) :   1.2377 B( 75-C , 81-H ) :   0.9690 B( 75-C , 82-H ) :   0.9347 
B( 75-C , 83-H ) :   0.9270 B( 76-C , 77-N ) :   1.4451 B( 76-C , 84-H ) :   0.9381 
B( 85-Zn, 86-N ) :   0.3613 B( 85-Zn, 94-N ) :   0.4517 B( 85-Zn,102-N ) :   0.3628 
B( 85-Zn,110-N ) :   0.4514 B( 85-Zn,118-N ) :   0.3619 B( 85-Zn,126-N ) :   0.4506 
B( 86-N , 87-C ) :   1.8130 B( 86-N , 88-C ) :  -0.1193 B( 87-C , 88-C ) :   0.9715 
B( 87-C , 95-H ) :   0.9215 B( 88-C , 89-C ) :   1.3251 B( 88-C , 94-N ) :   1.2395 
B( 89-C , 90-C ) :   1.3867 B( 89-C , 96-H ) :   0.9123 B( 90-C , 91-C ) :   1.2924 
B( 90-C , 97-H ) :   0.9724 B( 91-C , 92-C ) :   0.9044 B( 91-C , 93-C ) :   1.2376 
B( 92-C , 98-H ) :   0.9346 B( 92-C , 99-H ) :   0.9270 B( 92-C ,100-H ) :   0.9689 
B( 93-C , 94-N ) :   1.4455 B( 93-C ,101-H ) :   0.9379 B(102-N ,103-C ) :   1.8121 
B(102-N ,104-C ) :  -0.1192 B(103-C ,104-C ) :   0.9706 B(103-C ,111-H ) :   0.9218 
B(104-C ,105-C ) :   1.3250 B(104-C ,110-N ) :   1.2403 B(105-C ,106-C ) :   1.3868 
B(105-C ,112-H ) :   0.9125 B(106-C ,107-C ) :   1.2924 B(106-C ,113-H ) :   0.9723 
B(107-C ,108-C ) :   0.9045 B(107-C ,109-C ) :   1.2382 B(108-C ,114-H ) :   0.9689 
B(108-C ,115-H ) :   0.9347 B(108-C ,116-H ) :   0.9269 B(109-C ,110-N ) :   1.4456 
B(109-C ,117-H ) :   0.9378 B(118-N ,119-C ) :   1.8128 B(118-N ,120-C ) :  -0.1194 
B(119-C ,120-C ) :   0.9712 B(119-C ,127-H ) :   0.9216 B(120-C ,121-C ) :   1.3249 
B(120-C ,126-N ) :   1.2398 B(121-C ,122-C ) :   1.3867 B(121-C ,128-H ) :   0.9125 
B(122-C ,123-C ) :   1.2924 B(122-C ,129-H ) :   0.9724 B(123-C ,124-C ) :   0.9044 
B(123-C ,125-C ) :   1.2376 B(124-C ,130-H ) :   0.9347 B(124-C ,131-H ) :   0.9270 
B(124-C ,132-H ) :   0.9689 B(125-C ,126-N ) :   1.4455 B(125-C ,133-H ) :   0.9380 
B(134-Zn,135-N ) :   0.3616 B(134-Zn,143-N ) :   0.4504 B(134-Zn,151-N ) :   0.3618 
B(134-Zn,159-N ) :   0.4510 B(134-Zn,167-N ) :   0.3630 B(134-Zn,175-N ) :   0.4515 
B(135-N ,136-C ) :   1.8126 B(135-N ,137-C ) :  -0.1191 B(136-C ,137-C ) :   0.9717 
B(136-C ,144-H ) :   0.9215 B(137-C ,138-C ) :   1.3251 B(137-C ,143-N ) :   1.2398 
B(138-C ,139-C ) :   1.3866 B(138-C ,145-H ) :   0.9125 B(139-C ,140-C ) :   1.2923 
B(139-C ,146-H ) :   0.9724 B(140-C ,141-C ) :   0.9045 B(140-C ,142-C ) :   1.2378 
B(141-C ,147-H ) :   0.9270 B(141-C ,148-H ) :   0.9689 B(141-C ,149-H ) :   0.9346 
B(142-C ,143-N ) :   1.4449 B(142-C ,150-H ) :   0.9381 B(151-N ,152-C ) :   1.8118 
B(151-N ,153-C ) :  -0.1191 B(152-C ,153-C ) :   0.9719 B(152-C ,160-H ) :   0.9217 
B(153-C ,154-C ) :   1.3253 B(153-C ,159-N ) :   1.2403 B(154-C ,155-C ) :   1.3865 
B(154-C ,161-H ) :   0.9124 B(155-C ,156-C ) :   1.2923 B(155-C ,162-H ) :   0.9725 
B(156-C ,157-C ) :   0.9044 B(156-C ,158-C ) :   1.2380 B(157-C ,163-H ) :   0.9271 
B(157-C ,164-H ) :   0.9689 B(157-C ,165-H ) :   0.9346 B(158-C ,159-N ) :   1.4450 
B(158-C ,166-H ) :   0.9377 B(167-N ,168-C ) :   1.8118 B(167-N ,169-C ) :  -0.1190 
B(168-C ,169-C ) :   0.9714 B(168-C ,176-H ) :   0.9216 B(169-C ,170-C ) :   1.3252 
B(169-C ,175-N ) :   1.2402 B(170-C ,171-C ) :   1.3868 B(170-C ,177-H ) :   0.9123 
B(171-C ,172-C ) :   1.2925 B(171-C ,178-H ) :   0.9724 B(172-C ,173-C ) :   0.9046 
B(172-C ,174-C ) :   1.2384 B(173-C ,179-H ) :   0.9688 B(173-C ,180-H ) :   0.9346 
B(173-C ,181-H ) :   0.9271 B(174-C ,175-N ) :   1.4451 B(174-C ,182-H ) :   0.9376 
B(183-Zn,184-N ) :   0.3618 B(183-Zn,192-N ) :   0.4504 B(183-Zn,200-N ) :   0.3622 
B(183-Zn,208-N ) :   0.4510 B(183-Zn,216-N ) :   0.3625 B(183-Zn,224-N ) :   0.4513 
B(184-N ,185-C ) :   1.8122 B(184-N ,186-C ) :  -0.1191 B(185-C ,186-C ) :   0.9719 
B(185-C ,193-H ) :   0.9216 B(186-C ,187-C ) :   1.3252 B(186-C ,192-N ) :   1.2398 
B(187-C ,188-C ) :   1.3868 B(187-C ,194-H ) :   0.9124 B(188-C ,189-C ) :   1.2923 
B(188-C ,195-H ) :   0.9724 B(189-C ,190-C ) :   0.9046 B(189-C ,191-C ) :   1.2378 
B(190-C ,196-H ) :   0.9346 B(190-C ,197-H ) :   0.9271 B(190-C ,198-H ) :   0.9688 
B(191-C ,192-N ) :   1.4453 B(191-C ,199-H ) :   0.9379 B(200-N ,201-C ) :   1.8127 
B(200-N ,202-C ) :  -0.1191 B(201-C ,202-C ) :   0.9717 B(201-C ,209-H ) :   0.9215 
B(202-C ,203-C ) :   1.3254 B(202-C ,208-N ) :   1.2400 B(203-C ,204-C ) :   1.3866 
B(203-C ,210-H ) :   0.9123 B(204-C ,205-C ) :   1.2925 B(204-C ,211-H ) :   0.9725 
B(205-C ,206-C ) :   0.9045 B(205-C ,207-C ) :   1.2384 B(206-C ,212-H ) :   0.9270 
B(206-C ,213-H ) :   0.9688 B(206-C ,214-H ) :   0.9347 B(207-C ,208-N ) :   1.4451 
B(207-C ,215-H ) :   0.9376 B(216-N ,217-C ) :   1.8123 B(216-N ,218-C ) :  -0.1194 
B(217-C ,218-C ) :   0.9710 B(217-C ,225-H ) :   0.9217 B(218-C ,219-C ) :   1.3253 
B(218-C ,224-N ) :   1.2398 B(219-C ,220-C ) :   1.3865 B(219-C ,226-H ) :   0.9125 
B(220-C ,221-C ) :   1.2923 B(220-C ,227-H ) :   0.9724 B(221-C ,222-C ) :   0.9044 
B(221-C ,223-C ) :   1.2381 B(222-C ,228-H ) :   0.9689 B(222-C ,229-H ) :   0.9347 
B(222-C ,230-H ) :   0.9270 B(223-C ,224-N ) :   1.4453 B(223-C ,231-H ) :   0.9379 


-------
TIMINGS
-------

Total SCF time: 0 days 0 hours 7 min 20 sec 

Total time                  ....     440.538 sec
Sum of individual times     ....     418.711 sec  ( 95.0%)

Fock matrix formation       ....     282.689 sec  ( 64.2%)
  Split-RI-J                ....     153.917 sec  ( 54.4% of F)
  XC integration            ....     116.768 sec  ( 41.3% of F)
    Basis function eval.    ....       9.855 sec  (  8.4% of XC)
    Density eval.           ....      68.072 sec  ( 58.3% of XC)
    XC-Functional eval.     ....       2.313 sec  (  2.0% of XC)
    XC-Potential eval.      ....      21.855 sec  ( 18.7% of XC)
Diagonalization             ....      42.172 sec  (  9.6%)
Density matrix formation    ....       3.977 sec  (  0.9%)
Population analysis         ....      24.319 sec  (  5.5%)
Initial guess               ....       9.300 sec  (  2.1%)
Orbital Transformation      ....       0.000 sec  (  0.0%)
Orbital Orthonormalization  ....       0.000 sec  (  0.0%)
DIIS solution               ....      38.740 sec  (  8.8%)
Grid generation             ....      17.513 sec  (  4.0%)

Maximum memory used throughout the entire SCF-calculation: 1405.7 MB


-------------------------------------------------------------------------------
                          DFT DISPERSION CORRECTION                            
                                                                               
                                 DFTD4 V2.5                                    
-------------------------------------------------------------------------------
The R2SCAN3C composite method is recognized
Using three-body term ABC
Active option DFTDOPT                   ...         5   

Starting D4
-------------------------   ----------------
Dispersion correction           -0.180354601
-------------------------   ----------------

NOTIFICATION: Different basis set in ORCA and otool_gcp:
ORCA: 3240  gCP: 3232 
If you are NOT using ECPs, check your basis set inputs!
------------------   -----------------
gCP correction             0.139568864
------------------   -----------------

-------------------------   --------------------
FINAL SINGLE POINT ENERGY    -12600.948568693328
-------------------------   --------------------


                            ***************************************
                            *     ORCA property calculations      *
                            ***************************************

                                    ---------------------
                                    Active property flags
                                    ---------------------
   (+) Dipole Moment


------------------------------------------------------------------------------
                       ORCA ELECTRIC PROPERTIES CALCULATION
------------------------------------------------------------------------------

Dipole Moment Calculation                       ... on
Quadrupole Moment Calculation                   ... off
Polarizability Calculation                      ... off
GBWName                                         ... Tetrahedron_l1_ald3_ORCA_DFT.gbw
Electron density                                ... Tetrahedron_l1_ald3_ORCA_DFT.scfp
The origin for moment calculation is the CENTER OF MASS  = ( 1.385576, -0.731830  0.686170)

-------------
DIPOLE MOMENT
-------------
                                X             Y             Z
Electronic contribution:     -0.01506      -0.01356       0.00304
Nuclear contribution   :      0.01642       0.01197      -0.00277
                        -----------------------------------------
Total Dipole Moment    :      0.00136      -0.00159       0.00027
                        -----------------------------------------
Magnitude (a.u.)       :      0.00211
Magnitude (Debye)      :      0.00537



--------------------
Rotational spectrum 
--------------------
 
Rotational constants in cm-1:     0.000303     0.000303     0.000303 
Rotational constants in MHz :     9.076344     9.072032     9.070162 

 Dipole components along the rotational axes: 
x,y,z [a.u.] :     0.001705    -0.001233    -0.000197 
x,y,z [Debye]:     0.004335    -0.003134    -0.000502 

 

Timings for individual modules:

Sum of individual times         ...      455.313 sec (=   7.589 min)
GTO integral calculation        ...       12.496 sec (=   0.208 min)   2.7 %
SCF iterations                  ...      442.817 sec (=   7.380 min)  97.3 %
                             ****ORCA TERMINATED NORMALLY****
TOTAL RUN TIME: 0 days 0 hours 7 minutes 45 seconds 30 msec
