
                                 *****************
                                 * O   R   C   A *
                                 *****************

                                            #,                                       
                                            ###                                      
                                            ####                                     
                                            #####                                    
                                            ######                                   
                                           ########,                                 
                                     ,,################,,,,,                         
                               ,,#################################,,                 
                          ,,##########################################,,             
                       ,#########################################, ''#####,          
                    ,#############################################,,   '####,        
                  ,##################################################,,,,####,       
                ,###########''''           ''''###############################       
              ,#####''   ,,,,##########,,,,          '''####'''          '####       
            ,##' ,,,,###########################,,,                        '##       
           ' ,,###''''                  '''############,,,                           
         ,,##''                                '''############,,,,        ,,,,,,###''
      ,#''                                            '''#######################'''  
     '                                                          ''''####''''         
             ,#######,   #######,   ,#######,      ##                                
            ,#'     '#,  ##    ##  ,#'     '#,    #''#        ######   ,####,        
            ##       ##  ##   ,#'  ##            #'  '#       #        #'  '#        
            ##       ##  #######   ##           ,######,      #####,   #    #        
            '#,     ,#'  ##    ##  '#,     ,#' ,#      #,         ##   #,  ,#        
             '#######'   ##     ##  '#######'  #'      '#     #####' # '####'        



                  #######################################################
                  #                        -***-                        #
                  #          Department of theory and spectroscopy      #
                  #    Directorship and core code : Frank Neese         #
                  #        Max Planck Institute fuer Kohlenforschung    #
                  #                Kaiser Wilhelm Platz 1               #
                  #                 D-45470 Muelheim/Ruhr               #
                  #                      Germany                        #
                  #                                                     #
                  #                  All rights reserved                #
                  #                        -***-                        #
                  #######################################################


                         Program Version 5.0.4 -  RELEASE  -


 With contributions from (in alphabetic order):
   Daniel Aravena         : Magnetic Suceptibility
   Michael Atanasov       : Ab Initio Ligand Field Theory (pilot matlab implementation)
   Alexander A. Auer      : GIAO ZORA, VPT2 properties, NMR spectrum
   Ute Becker             : Parallelization
   Giovanni Bistoni       : ED, misc. LED, open-shell LED, HFLD
   Martin Brehm           : Molecular dynamics
   Dmytro Bykov           : SCF Hessian
   Vijay G. Chilkuri      : MRCI spin determinant printing, contributions to CSF-ICE
   Dipayan Datta          : RHF DLPNO-CCSD density
   Achintya Kumar Dutta   : EOM-CC, STEOM-CC
   Dmitry Ganyushin       : Spin-Orbit,Spin-Spin,Magnetic field MRCI
   Miquel Garcia          : C-PCM and meta-GGA Hessian, CC/C-PCM, Gaussian charge scheme
   Yang Guo               : DLPNO-NEVPT2, F12-NEVPT2, CIM, IAO-localization
   Andreas Hansen         : Spin unrestricted coupled pair/coupled cluster methods
   Benjamin Helmich-Paris : MC-RPA, TRAH-SCF, COSX integrals
   Lee Huntington         : MR-EOM, pCC
   Robert Izsak           : Overlap fitted RIJCOSX, COSX-SCS-MP3, EOM
   Marcus Kettner         : VPT2
   Christian Kollmar      : KDIIS, OOCD, Brueckner-CCSD(T), CCSD density, CASPT2, CASPT2-K
   Simone Kossmann        : Meta GGA functionals, TD-DFT gradient, OOMP2, MP2 Hessian
   Martin Krupicka        : Initial AUTO-CI
   Lucas Lang             : DCDCAS
   Marvin Lechner         : AUTO-CI (C++ implementation), FIC-MRCC
   Dagmar Lenk            : GEPOL surface, SMD
   Dimitrios Liakos       : Extrapolation schemes; Compound Job, initial MDCI parallelization
   Dimitrios Manganas     : Further ROCIS development; embedding schemes
   Dimitrios Pantazis     : SARC Basis sets
   Anastasios Papadopoulos: AUTO-CI, single reference methods and gradients
   Taras Petrenko         : DFT Hessian,TD-DFT gradient, ASA, ECA, R-Raman, ABS, FL, XAS/XES, NRVS
   Peter Pinski           : DLPNO-MP2, DLPNO-MP2 Gradient
   Christoph Reimann      : Effective Core Potentials
   Marius Retegan         : Local ZFS, SOC
   Christoph Riplinger    : Optimizer, TS searches, QM/MM, DLPNO-CCSD(T), (RO)-DLPNO pert. Triples
   Tobias Risthaus        : Range-separated hybrids, TD-DFT gradient, RPA, STAB
   Michael Roemelt        : Original ROCIS implementation
   Masaaki Saitow         : Open-shell DLPNO-CCSD energy and density
   Barbara Sandhoefer     : DKH picture change effects
   Avijit Sen             : IP-ROCIS
   Kantharuban Sivalingam : CASSCF convergence, NEVPT2, FIC-MRCI
   Bernardo de Souza      : ESD, SOC TD-DFT
   Georgi Stoychev        : AutoAux, RI-MP2 NMR, DLPNO-MP2 response
   Willem Van den Heuvel  : Paramagnetic NMR
   Boris Wezisla          : Elementary symmetry handling
   Frank Wennmohs         : Technical directorship


 We gratefully acknowledge several colleagues who have allowed us to
 interface, adapt or use parts of their codes:
   Stefan Grimme, W. Hujo, H. Kruse, P. Pracht,  : VdW corrections, initial TS optimization,
                  C. Bannwarth, S. Ehlert          DFT functionals, gCP, sTDA/sTD-DF
   Ed Valeev, F. Pavosevic, A. Kumar             : LibInt (2-el integral package), F12 methods
   Garnet Chan, S. Sharma, J. Yang, R. Olivares  : DMRG
   Ulf Ekstrom                                   : XCFun DFT Library
   Mihaly Kallay                                 : mrcc  (arbitrary order and MRCC methods)
   Jiri Pittner, Ondrej Demel                    : Mk-CCSD
   Frank Weinhold                                : gennbo (NPA and NBO analysis)
   Christopher J. Cramer and Donald G. Truhlar   : smd solvation model
   Lars Goerigk                                  : TD-DFT with DH, B97 family of functionals
   V. Asgeirsson, H. Jonsson                     : NEB implementation
   FAccTs GmbH                                   : IRC, NEB, NEB-TS, DLPNO-Multilevel, CI-OPT
                                                   MM, QMMM, 2- and 3-layer-ONIOM, Crystal-QMMM,
                                                   LR-CPCM, SF, NACMEs, symmetry and pop. for TD-DFT,
                                                   nearIR, NL-DFT gradient (VV10), updates on ESD,
                                                   ML-optimized integration grids
   S Lehtola, MJT Oliveira, MAL Marques          : LibXC Library
   Liviu Ungur et al                             : ANISO software


 Your calculation uses the libint2 library for the computation of 2-el integrals
 For citations please refer to: http://libint.valeyev.net

 Your ORCA version has been built with support for libXC version: 5.1.0
 For citations please refer to: https://tddft.org/programs/libxc/

 This ORCA versions uses:
   CBLAS   interface :  Fast vector & matrix operations
   LAPACKE interface :  Fast linear algebra routines
   SCALAPACK package :  Parallel linear algebra routines
   Shared memory     :  Shared parallel matrices
   BLAS/LAPACK       :  OpenBLAS 0.3.15  USE64BITINT DYNAMIC_ARCH NO_AFFINITY Prescott SINGLE_THREADED
        Core in use  :  Prescott
   Copyright (c) 2011-2014, The OpenBLAS Project




***************************************
The coordinates will be read from file: /rds/user/pcpt3/hpc-work/CageConstruction/GreenawayCollab/Tetrahedrons_ORCA_DFT/Tetrahedron_l0_ald3_ORCA_DFT/Tetrahedron_l0_ald3_XTB.xyz
***************************************


Your calculation utilizes the geometrical counterpoise correction gCP
Please cite in your paper:
H.Kruse, S. Grimme J.Chem.Phys., 136, (2012), 154101 
   

Your calculation utilizes the atom-pairwise dispersion correction
based on tight binding partial charges (D4)
Cite in your paper:
E.Caldeweyher, C.Bannwarth, S.Grimme, J.Chem.Phys., (2017), 147, 034112.
E.Caldeweyher, S.Ehlert, A.Hansen, H.Neugebauer, S.Grimme, J.Chem.Phys., (2018), in progress.
   

================================================================================

----- Orbital basis set information -----
Your calculation utilizes the basis: def2-mTZVPP
   Stefan Grimme, Andreas Hansen, Sebastian Ehlert, and Jan-Michael Mewes 
   J. Chem. Phys. 154, 000000 (2021). DOI: 10.1063/5.0040021

----- AuxJ basis set information -----
Your calculation utilizes the auxiliary basis: def2/J
   F. Weigend, Phys. Chem. Chem. Phys. 8, 1057 (2006).

================================================================================
                                        WARNINGS
                       Please study these warnings very carefully!
================================================================================

Using LibXC functional ID 497 : Re-regularized SCAN exchange by Furness et al
[ 1]  J. W. Furness, A. D. Kaplan, J. Ning, J. P. Perdew, and J. Sun, J. Phys. Chem. Lett. 11, 8208 (2020)
[ 2]  J. W. Furness, A. D. Kaplan, J. Ning, J. P. Perdew, and J. Sun, J. Phys. Chem. Lett. 11, 9248 (2020)
Using LibXC functional ID 498 : Re-regularized SCAN correlation by Furness et al
[ 1]  J. W. Furness, A. D. Kaplan, J. Ning, J. P. Perdew, and J. Sun, J. Phys. Chem. Lett. 11, 8208 (2020)
[ 2]  J. W. Furness, A. D. Kaplan, J. Ning, J. P. Perdew, and J. Sun, J. Phys. Chem. Lett. 11, 9248 (2020)
Using LibXC functional ID 497 : Re-regularized SCAN exchange by Furness et al
[ 1]  J. W. Furness, A. D. Kaplan, J. Ning, J. P. Perdew, and J. Sun, J. Phys. Chem. Lett. 11, 8208 (2020)
[ 2]  J. W. Furness, A. D. Kaplan, J. Ning, J. P. Perdew, and J. Sun, J. Phys. Chem. Lett. 11, 9248 (2020)
Using LibXC functional ID 498 : Re-regularized SCAN correlation by Furness et al
[ 1]  J. W. Furness, A. D. Kaplan, J. Ning, J. P. Perdew, and J. Sun, J. Phys. Chem. Lett. 11, 8208 (2020)
[ 2]  J. W. Furness, A. D. Kaplan, J. Ning, J. P. Perdew, and J. Sun, J. Phys. Chem. Lett. 11, 9248 (2020)

INFO   : the flag for use of the SHARK integral package has been found!

================================================================================
                                       INPUT FILE
================================================================================
NAME = Tetrahedron_l0_ald3_ORCA_DFT.inp
|  1> ! r2SCAN-3c ENERGY TightSCF def2/J 
|  2> %PAL NPROCS 32 END 
|  3> %maxcore 5316 
|  4> 
|  5> *xyzfile 8 1 /rds/user/pcpt3/hpc-work/CageConstruction/GreenawayCollab/Tetrahedrons_ORCA_DFT/Tetrahedron_l0_ald3_ORCA_DFT/Tetrahedron_l0_ald3_XTB.xyz 
|  6> 
|  7>                          ****END OF INPUT****
================================================================================

                       ****************************
                       * Single Point Calculation *
                       ****************************

---------------------------------
CARTESIAN COORDINATES (ANGSTROEM)
---------------------------------
  C     -0.858000   -2.337100    6.668600
  C      0.191200   -3.231000    6.465000
  C      0.387800   -3.809800    5.225700
  C     -1.727100   -2.073900    5.608500
  C     -1.501400   -2.627500    4.365800
  C     -0.432100   -3.494900    4.140500
  C     -0.165900   -4.017900    2.788500
  C      1.143800   -4.177600    2.341400
  C      1.417900   -4.606100    1.044500
  C      2.804500   -4.707600    0.556000
  C      3.772400   -3.793400    0.972300
  C      5.056600   -3.830000    0.470800
  C      5.408200   -4.763900   -0.505100
  C      4.461100   -5.706900   -0.899000
  C      3.187600   -5.685800   -0.363600
  C      0.352100   -4.880400    0.190600
  C     -0.967600   -4.730100    0.610200
  C     -2.086500   -4.954300   -0.322400
  C     -1.968000   -4.601000   -1.666700
  C     -3.026000   -4.738100   -2.540700
  C     -4.263100   -5.197500   -2.086300
  C     -4.381200   -5.591300   -0.755000
  C     -3.305000   -5.484400    0.105100
  C     -1.211800   -4.302600    1.913200
  H      0.828100   -3.493400    7.296500
  H      1.180700   -4.532200    5.102500
  H     -2.547500   -1.386400    5.754000
  H     -2.156200   -2.362400    3.549800
  H      1.961000   -3.965400    3.013400
  H      3.511500   -3.024700    1.683700
  H      5.783500   -3.097600    0.790000
  H      4.744300   -6.475900   -1.602100
  H      2.483400   -6.452000   -0.651000
  H      0.553400   -5.216200   -0.815000
  H     -1.038900   -4.190300   -2.031600
  H     -2.919100   -4.436600   -3.572400
  H     -5.313800   -6.013300   -0.411200
  H     -3.406500   -5.834100    1.121600
  H     -2.230900   -4.189800    2.249500
  C     -0.889600    1.535600    6.667200
  C     -0.520100    0.710600    5.606100
  C     -1.118600    0.847700    4.371000
  C     -1.892900    2.486300    6.460400
  C     -2.493600    2.613000    5.221400
  C     -2.113300    1.798700    4.158400
  C     -2.758600    1.883000    2.828600
  C     -3.554500    0.827800    2.400500
  C     -4.147500    0.841800    1.139700
  C     -4.969800   -0.292700    0.687600
  C     -6.072000   -0.115500   -0.151400
  C     -6.801700   -1.192700   -0.613100
  C     -6.470600   -2.488800   -0.220400
  C     -5.404100   -2.671400    0.661100
  C     -4.655400   -1.592800    1.083000
  C     -3.914400    1.933700    0.307900
  C     -3.110800    2.997700    0.712600
  C     -2.833100    4.115100   -0.205500
  C     -2.711800    3.888800   -1.576800
  C     -2.427100    4.919300   -2.448500
  C     -2.203000    6.210900   -1.969200
  C     -2.339800    6.451400   -0.602500
  C     -2.664400    5.421600    0.257700
  C     -2.543400    2.965700    1.986400
  H      0.257200   -0.019700    5.750400
  H     -0.807300    0.210400    3.556200
  H     -2.231800    3.102300    7.279900
  H     -3.277500    3.341600    5.080900
  H     -3.738900    0.007600    3.077700
  H     -6.374400    0.881100   -0.432700
  H     -7.654400   -1.037500   -1.255900
  H     -5.134400   -3.671100    0.965800
  H     -3.798700   -1.767400    1.715800
  H     -4.366700    1.953400   -0.671600
  H     -2.821600    2.888300   -1.967400
  H     -2.319700    4.720600   -3.503800
  H     -2.218000    7.456100   -0.228400
  H     -2.804800    5.639100    1.305100
  H     -1.899200    3.768500    2.312300
  C      2.529000   -0.258000    6.653800
  C      2.712700    1.113500    6.483400
  C      3.023400    1.627500    5.240000
  C      2.684800   -1.098100    5.550200
  C      2.955500   -0.571100    4.305200
  C      3.131500    0.800400    4.120400
  C      3.409800    1.336100    2.777700
  C      2.897400    2.567200    2.369700
  C      3.117100    3.037900    1.081600
  C      2.501000    4.302000    0.616300
  C      1.443100    4.246300   -0.287200
  C      0.857100    5.399800   -0.765700
  C      1.301000    6.649200   -0.335700
  C      2.367500    6.710100    0.564900
  C      2.958100    5.549500    1.030700
  C      3.871000    2.280100    0.191200
  C      4.397700    1.055800    0.581300
  C      5.145200    0.205900   -0.373800
  C      6.443400    0.502900   -0.778200
  C      7.114300   -0.320200   -1.664200
  C      6.498500   -1.468800   -2.168200
  C      5.205900   -1.775900   -1.746900
  C      4.538900   -0.944600   -0.871300
  C      4.159600    0.592300    1.868300
  H      2.640300    1.766200    7.339600
  H      3.201600    2.686800    5.140200
  H      2.535600   -2.160500    5.668500
  H      3.011300   -1.237200    3.457900
  H      2.288100    3.148700    3.045500
  H      1.073200    3.286400   -0.616900
  H      0.032500    5.339200   -1.454800
  H      2.759600    7.667600    0.874100
  H      3.789900    5.612800    1.715900
  H      4.043700    2.645500   -0.810500
  H      6.936200    1.380200   -0.387500
  H      8.133000   -0.088600   -1.937300
  H      4.718900   -2.654700   -2.132600
  H      3.530400   -1.188700   -0.570500
  H      4.594300   -0.349100    2.169100
  C     -5.269500   -1.896100   -3.854300
  C     -4.349800   -2.019500   -2.814100
  C     -3.068100   -1.528400   -2.951100
  C     -4.860500   -1.285300   -5.042900
  C     -3.571700   -0.801500   -5.175400
  C     -2.657800   -0.913500   -4.131500
  C     -1.261200   -0.435300   -4.245800
  C     -0.229000   -1.365000   -4.256000
  C      1.103400   -0.959500   -4.307000
  C      2.185700   -1.958200   -4.297400
  C      2.038200   -3.149900   -3.587100
  C      3.038900   -4.098500   -3.561500
  C      4.252900   -3.861800   -4.208000
  C      4.409900   -2.677200   -4.926300
  C      3.385600   -1.752800   -4.981400
  C      1.382700    0.404800   -4.329600
  C      0.363900    1.355100   -4.311300
  C      0.673100    2.794200   -4.257000
  C      1.779900    3.254400   -3.543000
  C      2.039000    4.603100   -3.416600
  C      1.170600    5.545900   -3.969600
  C      0.087700    5.096200   -4.722200
  C     -0.144500    3.743100   -4.873800
  C     -0.961300    0.919700   -4.283100
  H     -4.655500   -2.479200   -1.890000
  H     -2.374200   -1.618800   -2.128000
  H     -5.539800   -1.222200   -5.879900
  H     -3.266300   -0.346200   -6.105300
  H     -0.476800   -2.415600   -4.260600
  H      1.132800   -3.332400   -3.028800
  H      2.910200   -5.007300   -2.993500
  H      5.328200   -2.504900   -5.466100
  H      3.513600   -0.865300   -5.581400
  H      2.410900    0.730900   -4.360600
  H      2.435200    2.547200   -3.057300
  H      2.886200    4.938800   -2.836500
  H     -0.547600    5.818300   -5.213100
  H     -0.965000    3.415900   -5.494400
  H     -1.766500    1.638200   -4.251200
  Zn     0.326200   -0.384800    9.008600
  N     -1.021700   -1.695800    7.901700
  C     -2.181200   -1.682800    8.439500
  C     -2.444200   -1.001100    9.683400
  C     -3.685900   -1.114900   10.315200
  C     -3.891800   -0.476700   11.522300
  C     -2.856200    0.272500   12.086000
  C     -3.024300    0.966100   13.384600
  C     -1.654500    0.331500   11.370600
  N     -1.446900   -0.277100   10.214700
  H     -3.018700   -2.221800    7.995500
  H     -4.468600   -1.705500    9.865200
  H     -4.839900   -0.556300   12.032200
  H     -3.272700    0.248400   14.166500
  H     -3.860100    1.663800   13.336000
  H     -2.129300    1.507700   13.676200
  H     -0.825800    0.898600   11.772000
  N      2.128900   -0.781800    7.886800
  C      2.767700   -1.762500    8.398700
  C      2.331800   -2.391200    9.623900
  C      3.099500   -3.380300   10.244300
  C      2.648000   -3.946600   11.420700
  C      1.431000   -3.525800   11.962600
  C      0.907200   -4.103600   13.222100
  C      0.733900   -2.533500   11.262000
  N      1.161000   -1.982200   10.139100
  H      3.678500   -2.151900    7.942200
  H      4.038400   -3.688000    9.810700
  H      3.227100   -4.707600   11.921500
  H      0.778400   -5.181000   13.118700
  H     -0.042600   -3.662200   13.508600
  H      1.623100   -3.959600   14.031300
  H     -0.213700   -2.176600   11.641700
  N     -0.220000    1.388500    7.886600
  C      0.097400    2.428600    8.561200
  C      0.853800    2.342800    9.787800
  C      1.205000    3.493200   10.500400
  C      1.958800    3.372000   11.651300
  C      2.366200    2.104700   12.075600
  C      3.183600    1.926100   13.298300
  C      1.964000    1.015500   11.292900
  N      1.234400    1.121500   10.195600
  H     -0.142200    3.433000    8.211000
  H      0.883700    4.463200   10.153900
  H      2.235900    4.246200   12.220900
  H      4.137300    2.443500   13.191600
  H      3.376400    0.878600   13.509700
  H      2.687800    2.377100   14.157500
  H      2.252600    0.014100   11.582400
  Zn    -7.298700   -4.231300   -2.802600
  N     -5.369000   -5.235300   -2.943100
  C     -5.240200   -5.775400   -4.094300
  C     -6.319600   -5.809800   -5.051100
  C     -6.196900   -6.523600   -6.246600
  C     -7.263500   -6.564100   -7.122800
  C     -8.442200   -5.888200   -6.798400
  C     -9.618000   -5.911600   -7.699900
  C     -8.461300   -5.195200   -5.582300
  N     -7.445800   -5.151500   -4.735900
  H     -4.313900   -6.269400   -4.389400
  H     -5.279800   -7.044900   -6.472600
  H     -7.194500   -7.115200   -8.048400
  H     -9.952300   -6.937100   -7.857500
  H     -9.349700   -5.525100   -8.682900
  H    -10.445500   -5.329200   -7.305500
  H     -9.354600   -4.659900   -5.290900
  N     -7.149200   -3.591500   -0.747700
  C     -7.619600   -4.484200    0.035500
  C     -8.252300   -5.678600   -0.474400
  C     -8.873600   -6.592000    0.381200
  C     -9.476700   -7.714300   -0.152600
  C     -9.447700   -7.918100   -1.534400
  C    -10.082000   -9.106000   -2.151800
  C     -8.795000   -6.947800   -2.305100
  N     -8.220000   -5.868500   -1.803500
  H     -7.581700   -4.370900    1.119600
  H     -8.888000   -6.413400    1.445200
  H     -9.968700   -8.430500    0.488000
  H     -9.976400   -9.108600   -3.232600
  H    -11.141700   -9.143600   -1.899600
  H     -9.642200  -10.019700   -1.752400
  H     -8.745300   -7.062700   -3.379300
  N     -6.570200   -2.370600   -3.652100
  C     -7.563000   -1.689700   -4.085800
  C     -8.928900   -2.091400   -3.846800
  C     -9.998800   -1.321000   -4.311600
  C    -11.291200   -1.721100   -4.033600
  C    -11.505400   -2.880700   -3.284200
  C    -12.873200   -3.344100   -2.953500
  C    -10.368500   -3.582100   -2.864300
  N     -9.128500   -3.211600   -3.133900
  H     -7.422900   -0.744200   -4.610600
  H     -9.812500   -0.426500   -4.885300
  H    -12.132700   -1.145000   -4.387900
  H    -12.864100   -4.280500   -2.403700
  H    -13.462700   -3.470200   -3.861300
  H    -13.390700   -2.592400   -2.357100
  H    -10.483300   -4.487500   -2.283900
  Zn     7.253800   -4.476100   -3.181500
  N      6.676100   -4.737200   -1.096400
  C      7.707000   -4.667500   -0.344000
  C      9.044200   -4.587500   -0.879600
  C     10.159100   -4.649000   -0.038600
  C     11.424700   -4.605500   -0.589100
  C     11.565400   -4.497500   -1.974700
  C     12.901700   -4.459000   -2.613900
  C     10.387400   -4.433700   -2.728300
  N      9.170800   -4.475900   -2.211000
  H      7.620400   -4.703700    0.742400
  H     10.026300   -4.740500    1.028100
  H     12.300500   -4.658900    0.039800
  H     12.834300   -4.366400   -3.693800
  H     13.462100   -5.362000   -2.371700
  H     13.484800   -3.625600   -2.222800
  H     10.450600   -4.352100   -3.804800
  N      5.310000   -4.768500   -4.081100
  C      5.123200   -6.003300   -4.348900
  C      6.165100   -6.984800   -4.154400
  C      5.997700   -8.310500   -4.563100
  C      7.026600   -9.211700   -4.369500
  C      8.210100   -8.783000   -3.763500
  C      9.340900   -9.712800   -3.537100
  C      8.277000   -7.436400   -3.384300
  N      7.299600   -6.566100   -3.570300
  H      4.177400   -6.363100   -4.755800
  H      5.076900   -8.619700   -5.032900
  H      6.922800  -10.239400   -4.683200
  H      9.670000  -10.145800   -4.481800
  H      9.023900  -10.548900   -2.914000
  H     10.184200   -9.220500   -3.062200
  H      9.172300   -7.058500   -2.909900
  N      7.111400   -2.315100   -3.098800
  C      7.796200   -1.810700   -4.054600
  C      8.386600   -2.630500   -5.086000
  C      9.114300   -2.059100   -6.133900
  C      9.633600   -2.874900   -7.120100
  C      9.412500   -4.253100   -7.059100
  C      9.941800   -5.166300   -8.098700
  C      8.670900   -4.727600   -5.970200
  N      8.178600   -3.955200   -5.016900
  H      7.918900   -0.732700   -4.164400
  H      9.270500   -0.992000   -6.165400
  H     10.204300   -2.456000   -7.935200
  H      9.517900   -4.914700   -9.071000
  H      9.718800   -6.206200   -7.879100
  H     11.020500   -5.046900   -8.197500
  H      8.475600   -5.787400   -5.877500
  Zn     0.048500    8.370600   -2.811600
  N     -1.786800    7.226000   -2.835700
  C     -2.441300    7.453300   -3.908900
  C     -1.996600    8.432700   -4.872900
  C     -2.776600    8.761000   -5.984800
  C     -2.316800    9.711500   -6.875400
  C     -1.079300   10.320000   -6.651800
  C     -0.545600   11.344800   -7.578900
  C     -0.371500    9.918200   -5.512100
  N     -0.806200    9.013800   -4.651500
  H     -3.373000    6.931700   -4.131300
  H     -3.731200    8.281400   -6.136400
  H     -2.904900    9.986100   -7.738000
  H     -0.445800   10.931200   -8.582300
  H      0.420500   11.721700   -7.256700
  H     -1.241500   12.179500   -7.662000
  H      0.591700   10.360600   -5.298100
  N      0.639800    7.789100   -0.807100
  C      0.384000    8.747600    0.000600
  C     -0.363500    9.912800   -0.410200
  C     -0.656500   10.938100    0.493600
  C     -1.406500   12.018200    0.070900
  C     -1.868100   12.060900   -1.247100
  C     -2.684600   13.193600   -1.742500
  C     -1.520900   10.985900   -2.074400
  N     -0.795500    9.953200   -1.680800
  H      0.670300    8.702300    1.051900
  H     -0.294600   10.884400    1.508600
  H     -1.639400   12.824500    0.750000
  H     -2.919600   13.094900   -2.798100
  H     -2.165400   14.137800   -1.580200
  H     -3.616600   13.258600   -1.180800
  H     -1.851700   10.975000   -3.104100
  N      1.362900    6.912900   -3.745900
  C      2.527600    7.411500   -3.915700
  C      2.813600    8.799700   -3.646900
  C      4.056100    9.352800   -3.970000
  C      4.283400   10.693100   -3.727700
  C      3.268700   11.468200   -3.161200
  C      3.460200   12.912700   -2.892000
  C      2.064400   10.818400   -2.866400
  N      1.836100    9.535800   -3.095800
  H      3.350400    6.812300   -4.306900
  H      4.822100    8.736600   -4.414200
  H      5.232400   11.144000   -3.975800
  H      4.309200   13.064500   -2.225700
  H      2.578300   13.364700   -2.447800
  H      3.700100   13.440400   -3.815100
  H      1.251300   11.381800   -2.429700

----------------------------
CARTESIAN COORDINATES (A.U.)
----------------------------
  NO LB      ZA    FRAG     MASS         X           Y           Z
   0 C     6.0000    0    12.011   -1.621385   -4.416479   12.601828
   1 C     6.0000    0    12.011    0.361316   -6.105705   12.217079
   2 C     6.0000    0    12.011    0.732836   -7.199479    9.875142
   3 C     6.0000    0    12.011   -3.263746   -3.919103   10.598529
   4 C     6.0000    0    12.011   -2.837235   -4.965255    8.250166
   5 C     6.0000    0    12.011   -0.816551   -6.604404    7.824411
   6 C     6.0000    0    12.011   -0.313506   -7.592731    5.269501
   7 C     6.0000    0    12.011    2.161469   -7.894520    4.424605
   8 C     6.0000    0    12.011    2.679443   -8.704268    1.973819
   9 C     6.0000    0    12.011    5.299737   -8.896075    1.050688
  10 C     6.0000    0    12.011    7.128803   -7.168487    1.837381
  11 C     6.0000    0    12.011    9.555589   -7.237651    0.889683
  12 C     6.0000    0    12.011   10.220017   -9.002466   -0.954501
  13 C     6.0000    0    12.011    8.430257  -10.784478   -1.698864
  14 C     6.0000    0    12.011    6.023691  -10.744605   -0.687104
  15 C     6.0000    0    12.011    0.665373   -9.222619    0.360182
  16 C     6.0000    0    12.011   -1.828499   -8.938594    1.153111
  17 C     6.0000    0    12.011   -3.942914   -9.362270   -0.609248
  18 C     6.0000    0    12.011   -3.718981   -8.694630   -3.149607
  19 C     6.0000    0    12.011   -5.718311   -8.953711   -4.801227
  20 C     6.0000    0    12.011   -8.056091   -9.821852   -3.942536
  21 C     6.0000    0    12.011   -8.279268  -10.566026   -1.426743
  22 C     6.0000    0    12.011   -6.245545  -10.364014    0.198610
  23 C     6.0000    0    12.011   -2.289970   -8.130736    3.615424
  24 H     1.0000    0     1.008    1.564882   -6.601569   13.788387
  25 H     1.0000    0     1.008    2.231200   -8.564617    9.642328
  26 H     1.0000    0     1.008   -4.814077   -2.619916   10.873484
  27 H     1.0000    0     1.008   -4.074627   -4.464289    6.708150
  28 H     1.0000    0     1.008    3.705753   -7.493520    5.694501
  29 H     1.0000    0     1.008    6.635773   -5.715855    3.181732
  30 H     1.0000    0     1.008   10.929231   -5.853616    1.492884
  31 H     1.0000    0     1.008    8.965428  -12.237677   -3.027530
  32 H     1.0000    0     1.008    4.692946  -12.192513   -1.230212
  33 H     1.0000    0     1.008    1.045774   -9.857189   -1.540127
  34 H     1.0000    0     1.008   -1.963236   -7.918519   -3.839168
  35 H     1.0000    0     1.008   -5.516300   -8.383959   -6.750858
  36 H     1.0000    0     1.008  -10.041627  -11.363490   -0.777055
  37 H     1.0000    0     1.008   -6.437352  -11.024851    2.119517
  38 H     1.0000    0     1.008   -4.215790   -7.917575    4.250939
  39 C     6.0000    0    12.011   -1.681100    2.901863   12.599182
  40 C     6.0000    0    12.011   -0.982847    1.342839   10.593994
  41 C     6.0000    0    12.011   -2.113848    1.601921    8.259993
  42 C     6.0000    0    12.011   -3.577063    4.698426   12.208387
  43 C     6.0000    0    12.011   -4.712221    4.937854    9.867016
  44 C     6.0000    0    12.011   -3.993558    3.399050    7.858237
  45 C     6.0000    0    12.011   -5.212999    3.558354    5.345279
  46 C     6.0000    0    12.011   -6.717032    1.564315    4.536288
  47 C     6.0000    0    12.011   -7.837639    1.590771    2.153721
  48 C     6.0000    0    12.011   -9.391561   -0.553123    1.299376
  49 C     6.0000    0    12.011  -11.474417   -0.218263   -0.286105
  50 C     6.0000    0    12.011  -12.853350   -2.253876   -1.158591
  51 C     6.0000    0    12.011  -12.227662   -4.703150   -0.416496
  52 C     6.0000    0    12.011  -10.212269   -5.048214    1.249298
  53 C     6.0000    0    12.011   -8.797431   -3.009956    2.046573
  54 C     6.0000    0    12.011   -7.397144    3.654163    0.581847
  55 C     6.0000    0    12.011   -5.878560    5.664832    1.346619
  56 C     6.0000    0    12.011   -5.353783    7.776412   -0.388339
  57 C     6.0000    0    12.011   -5.124559    7.348767   -2.979720
  58 C     6.0000    0    12.011   -4.586554    9.296130   -4.626994
  59 C     6.0000    0    12.011   -4.163067   11.736900   -3.721249
  60 C     6.0000    0    12.011   -4.421581   12.191379   -1.138560
  61 C     6.0000    0    12.011   -5.034986   10.245339    0.486982
  62 C     6.0000    0    12.011   -4.806329    5.604361    3.753752
  63 H     1.0000    0     1.008    0.486038   -0.037228   10.866681
  64 H     1.0000    0     1.008   -1.525576    0.397598    6.720244
  65 H     1.0000    0     1.008   -4.217491    5.862497   13.757017
  66 H     1.0000    0     1.008   -6.193577    6.314709    9.601510
  67 H     1.0000    0     1.008   -7.065497    0.014362    5.816010
  68 H     1.0000    0     1.008  -12.045870    1.665038   -0.817684
  69 H     1.0000    0     1.008  -14.464720   -1.960591   -2.373307
  70 H     1.0000    0     1.008   -9.702610   -6.937374    1.825098
  71 H     1.0000    0     1.008   -7.178503   -3.339902    3.242392
  72 H     1.0000    0     1.008   -8.251867    3.691391   -1.269140
  73 H     1.0000    0     1.008   -5.332051    5.458096   -3.717847
  74 H     1.0000    0     1.008   -4.383598    8.920641   -6.621222
  75 H     1.0000    0     1.008   -4.191413   14.089987   -0.431613
  76 H     1.0000    0     1.008   -5.300304   10.656355    2.466282
  77 H     1.0000    0     1.008   -3.588968    7.121433    4.369614
  78 C     6.0000    0    12.011    4.779117   -0.487549   12.573860
  79 C     6.0000    0    12.011    5.126260    2.104210   12.251850
  80 C     6.0000    0    12.011    5.713398    3.075529    9.902165
  81 C     6.0000    0    12.011    5.073537   -2.075108   10.488358
  82 C     6.0000    0    12.011    5.585086   -1.079223    8.135649
  83 C     6.0000    0    12.011    5.917677    1.512537    7.786428
  84 C     6.0000    0    12.011    6.443588    2.524863    5.249092
  85 C     6.0000    0    12.011    5.475293    4.851305    4.478084
  86 C     6.0000    0    12.011    5.890465    5.740799    2.043928
  87 C     6.0000    0    12.011    4.726205    8.129602    1.164638
  88 C     6.0000    0    12.011    2.727064    8.024344   -0.542729
  89 C     6.0000    0    12.011    1.619684   10.204143   -1.446963
  90 C     6.0000    0    12.011    2.458534   12.565167   -0.634381
  91 C     6.0000    0    12.011    4.473927   12.680251    1.067506
  92 C     6.0000    0    12.011    5.589999   10.487035    1.947741
  93 C     6.0000    0    12.011    7.315130    4.308765    0.361316
  94 C     6.0000    0    12.011    8.310449    1.995173    1.098498
  95 C     6.0000    0    12.011    9.723019    0.389095   -0.706380
  96 C     6.0000    0    12.011   12.176261    0.950343   -1.470585
  97 C     6.0000    0    12.011   13.444079   -0.605090   -3.144882
  98 C     6.0000    0    12.011   12.280385   -2.775630   -4.097304
  99 C     6.0000    0    12.011    9.837725   -3.355965   -3.301163
 100 C     6.0000    0    12.011    8.577278   -1.785035   -1.646518
 101 C     6.0000    0    12.011    7.860505    1.119285    3.530575
 102 H     1.0000    0     1.008    4.989444    3.337634   13.869834
 103 H     1.0000    0     1.008    6.050147    5.077316    9.713570
 104 H     1.0000    0     1.008    4.791590   -4.082753   10.711913
 105 H     1.0000    0     1.008    5.690532   -2.337969    6.534484
 106 H     1.0000    0     1.008    4.323882    5.950181    5.755161
 107 H     1.0000    0     1.008    2.028054    6.210396   -1.165772
 108 H     1.0000    0     1.008    0.061416   10.089626   -2.749174
 109 H     1.0000    0     1.008    5.214888   14.489664    1.651810
 110 H     1.0000    0     1.008    7.161873   10.606655    3.242581
 111 H     1.0000    0     1.008    7.641486    4.999270   -1.531623
 112 H     1.0000    0     1.008   13.107518    2.608200   -0.732269
 113 H     1.0000    0     1.008   15.369143   -0.167430   -3.660966
 114 H     1.0000    0     1.008    8.917429   -5.016656   -4.030030
 115 H     1.0000    0     1.008    6.671489   -2.246317   -1.078089
 116 H     1.0000    0     1.008    8.681969   -0.659703    4.099005
 117 C     6.0000    0    12.011   -9.957912   -3.583110   -7.283571
 118 C     6.0000    0    12.011   -8.219931   -3.816302   -5.317878
 119 C     6.0000    0    12.011   -5.797869   -2.888257   -5.576771
 120 C     6.0000    0    12.011   -9.185014   -2.428865   -9.529700
 121 C     6.0000    0    12.011   -6.749535   -1.514615   -9.780089
 122 C     6.0000    0    12.011   -5.022514   -1.726265   -7.807404
 123 C     6.0000    0    12.011   -2.383323   -0.822598   -8.023399
 124 C     6.0000    0    12.011   -0.432747   -2.579476   -8.042674
 125 C     6.0000    0    12.011    2.085124   -1.813192   -8.139050
 126 C     6.0000    0    12.011    4.130374   -3.700462   -8.120909
 127 C     6.0000    0    12.011    3.851640   -5.952448   -6.778637
 128 C     6.0000    0    12.011    5.742689   -7.745043   -6.730260
 129 C     6.0000    0    12.011    8.036816   -7.297744   -7.951968
 130 C     6.0000    0    12.011    8.333503   -5.059175   -9.309358
 131 C     6.0000    0    12.011    6.397857   -3.312312   -9.413482
 132 C     6.0000    0    12.011    2.612924    0.764961   -8.181758
 133 C     6.0000    0    12.011    0.687671    2.560768   -8.147176
 134 C     6.0000    0    12.011    1.271975    5.280273   -8.044564
 135 C     6.0000    0    12.011    3.363524    6.149925   -6.695300
 136 C     6.0000    0    12.011    3.853152    8.698598   -6.456438
 137 C     6.0000    0    12.011    2.212113   10.480232   -7.501457
 138 C     6.0000    0    12.011    0.165729    9.630422   -8.923665
 139 C     6.0000    0    12.011   -0.273065    7.073434   -9.210147
 140 C     6.0000    0    12.011   -1.816594    1.737981   -8.093886
 141 H     1.0000    0     1.008   -8.797620   -4.685009   -3.571582
 142 H     1.0000    0     1.008   -4.486588   -3.059089   -4.021337
 143 H     1.0000    0     1.008  -10.468705   -2.309623  -11.111401
 144 H     1.0000    0     1.008   -6.172412   -0.654223  -11.537345
 145 H     1.0000    0     1.008   -0.901021   -4.564822   -8.051367
 146 H     1.0000    0     1.008    2.140682   -6.297323   -5.723603
 147 H     1.0000    0     1.008    5.499481   -9.462426   -5.656895
 148 H     1.0000    0     1.008   10.068839   -4.733575  -10.329432
 149 H     1.0000    0     1.008    6.639742   -1.635180  -10.547317
 150 H     1.0000    0     1.008    4.555941    1.381201   -8.240340
 151 H     1.0000    0     1.008    4.601861    4.813510   -5.777460
 152 H     1.0000    0     1.008    5.454128    9.332979   -5.360208
 153 H     1.0000    0     1.008   -1.034814   10.994994   -9.851331
 154 H     1.0000    0     1.008   -1.823586    6.455116  -10.382911
 155 H     1.0000    0     1.008   -3.338201    3.095749   -8.033604
 156 Zn   30.0000    0    65.380    0.616429   -0.727167   17.023787
 157 N     7.0000    0    14.007   -1.930733   -3.204598   14.932049
 158 C     6.0000    0    12.011   -4.121871   -3.180031   15.948344
 159 C     6.0000    0    12.011   -4.618869   -1.891805   18.298974
 160 C     6.0000    0    12.011   -6.965342   -2.106856   19.492903
 161 C     6.0000    0    12.011   -7.354436   -0.900832   21.773991
 162 C     6.0000    0    12.011   -5.397436    0.514950   22.839230
 163 C     6.0000    0    12.011   -5.715099    1.825664   25.293228
 164 C     6.0000    0    12.011   -3.126552    0.626444   21.487320
 165 N     7.0000    0    14.007   -2.734245   -0.523643   19.302986
 166 H     1.0000    0     1.008   -5.704516   -4.198594   15.109305
 167 H     1.0000    0     1.008   -8.444430   -3.222928   18.642526
 168 H     1.0000    0     1.008   -9.146086   -1.051255   22.737563
 169 H     1.0000    0     1.008   -6.184507    0.469408   26.770805
 170 H     1.0000    0     1.008   -7.294532    3.144126   25.201388
 171 H     1.0000    0     1.008   -4.023794    2.849140   25.844273
 172 H     1.0000    0     1.008   -1.560536    1.698108   22.245856
 173 N     7.0000    0    14.007    4.023038   -1.477388   14.903892
 174 C     6.0000    0    12.011    5.230195   -3.330642   15.871243
 175 C     6.0000    0    12.011    4.406463   -4.518713   18.186535
 176 C     6.0000    0    12.011    5.857206   -6.387841   19.358921
 177 C     6.0000    0    12.011    5.003995   -7.457993   21.581995
 178 C     6.0000    0    12.011    2.704198   -6.662796   22.606038
 179 C     6.0000    0    12.011    1.714360   -7.754680   24.986148
 180 C     6.0000    0    12.011    1.386870   -4.787621   21.282096
 181 N     7.0000    0    14.007    2.193972   -3.745815   19.160122
 182 H     1.0000    0     1.008    6.951358   -4.066502   15.008583
 183 H     1.0000    0     1.008    7.631470   -6.969310   18.539536
 184 H     1.0000    0     1.008    6.098335   -8.896075   22.528370
 185 H     1.0000    0     1.008    1.470963   -9.790671   24.790750
 186 H     1.0000    0     1.008   -0.080502   -6.920555   25.527554
 187 H     1.0000    0     1.008    3.067214   -7.482560   26.515314
 188 H     1.0000    0     1.008   -0.403834   -4.113178   21.999625
 189 N     7.0000    0    14.007   -0.415740    2.623885   14.903514
 190 C     6.0000    0    12.011    0.184059    4.589389   16.178323
 191 C     6.0000    0    12.011    1.613448    4.427250   18.496261
 192 C     6.0000    0    12.011    2.277120    6.601191   19.842880
 193 C     6.0000    0    12.011    3.701596    6.372157   22.017766
 194 C     6.0000    0    12.011    4.471470    3.977307   22.819577
 195 C     6.0000    0    12.011    6.016132    3.639802   25.130145
 196 C     6.0000    0    12.011    3.711422    1.919017   21.340488
 197 N     7.0000    0    14.007    2.332678    2.119328   19.266892
 198 H     1.0000    0     1.008   -0.268719    6.487430   15.516541
 199 H     1.0000    0     1.008    1.669951    8.434226   19.188090
 200 H     1.0000    0     1.008    4.225239    8.024155   23.094154
 201 H     1.0000    0     1.008    7.818364    4.617546   24.928511
 202 H     1.0000    0     1.008    6.380471    1.660313   25.529633
 203 H     1.0000    0     1.008    5.079206    4.492068   26.753798
 204 H     1.0000    0     1.008    4.256797    0.026645   21.887564
 205 Zn   30.0000    0    65.380  -13.792544   -7.995998   -5.296146
 206 N     7.0000    0    14.007  -10.145940   -9.893283   -5.561653
 207 C     6.0000    0    12.011   -9.902543  -10.913924   -7.737106
 208 C     6.0000    0    12.011  -11.942313  -10.978931   -9.545196
 209 C     6.0000    0    12.011  -11.710444  -12.327817  -11.804363
 210 C     6.0000    0    12.011  -13.726026  -12.404351  -13.460141
 211 C     6.0000    0    12.011  -15.953446  -11.127085  -12.847114
 212 C     6.0000    0    12.011  -18.175386  -11.171305  -14.550702
 213 C     6.0000    0    12.011  -15.989540   -9.817505  -10.549018
 214 N     7.0000    0    14.007  -14.070523   -9.734924   -8.949554
 215 H     1.0000    0     1.008   -8.152090  -11.847449   -8.294764
 216 H     1.0000    0     1.008   -9.977376  -13.312932  -12.231441
 217 H     1.0000    0     1.008  -13.595635  -13.445779  -15.209272
 218 H     1.0000    0     1.008  -18.807121  -13.109219  -14.848523
 219 H     1.0000    0     1.008  -17.668372  -10.440926  -16.408303
 220 H     1.0000    0     1.008  -19.739134  -10.070729  -13.805394
 221 H     1.0000    0     1.008  -17.677632   -8.805935   -9.998352
 222 N     7.0000    0    14.007  -13.510030   -6.786951   -1.412948
 223 C     6.0000    0    12.011  -14.398957   -8.473910    0.067085
 224 C     6.0000    0    12.011  -15.594587  -10.730999   -0.896486
 225 C     6.0000    0    12.011  -16.768674  -12.457075    0.720364
 226 C     6.0000    0    12.011  -17.908368  -14.577914   -0.288372
 227 C     6.0000    0    12.011  -17.853566  -14.963041   -2.899596
 228 C     6.0000    0    12.011  -19.052219  -17.207846   -4.066313
 229 C     6.0000    0    12.011  -16.620141  -13.129439   -4.356008
 230 N     7.0000    0    14.007  -15.533549  -11.089858   -3.408121
 231 H     1.0000    0     1.008  -14.327337   -8.259804    2.115737
 232 H     1.0000    0     1.008  -16.795886  -12.119570    2.731032
 233 H     1.0000    0     1.008  -18.838113  -15.931336    0.922186
 234 H     1.0000    0     1.008  -18.852664  -17.212759   -6.108729
 235 H     1.0000    0     1.008  -21.054762  -17.278900   -3.589724
 236 H     1.0000    0     1.008  -18.221117  -18.934489   -3.311556
 237 H     1.0000    0     1.008  -16.526222  -13.346569   -6.385952
 238 N     7.0000    0    14.007  -12.415879   -4.479785   -6.901469
 239 C     6.0000    0    12.011  -14.291999   -3.193070   -7.721043
 240 C     6.0000    0    12.011  -16.873176   -3.952173   -7.269398
 241 C     6.0000    0    12.011  -18.894994   -2.496328   -8.147743
 242 C     6.0000    0    12.011  -21.337276   -3.252408   -7.622399
 243 C     6.0000    0    12.011  -21.742055   -5.443734   -6.206239
 244 C     6.0000    0    12.011  -24.326822   -6.319433   -5.581306
 245 C     6.0000    0    12.011  -19.593625   -6.769188   -5.412743
 246 N     7.0000    0    14.007  -17.250365   -6.069044   -5.922213
 247 H     1.0000    0     1.008  -14.027248   -1.406334   -8.712771
 248 H     1.0000    0     1.008  -18.542938   -0.805968   -9.231879
 249 H     1.0000    0     1.008  -22.927480   -2.163736   -8.291929
 250 H     1.0000    0     1.008  -24.309626   -8.088973   -4.542335
 251 H     1.0000    0     1.008  -25.440816   -6.557728   -7.296800
 252 H     1.0000    0     1.008  -25.304756   -4.898926   -4.454273
 253 H     1.0000    0     1.008  -19.810566   -8.480146   -4.315946
 254 Zn   30.0000    0    65.380   13.707695   -8.458603   -6.012164
 255 N     7.0000    0    14.007   12.616001   -8.952011   -2.071896
 256 C     6.0000    0    12.011   14.564119   -8.820297   -0.650066
 257 C     6.0000    0    12.011   17.091061   -8.669119   -1.662203
 258 C     6.0000    0    12.011   19.197917   -8.785337   -0.072943
 259 C     6.0000    0    12.011   21.589554   -8.703134   -1.113238
 260 C     6.0000    0    12.011   21.855439   -8.499043   -3.731642
 261 C     6.0000    0    12.011   24.380680   -8.426289   -4.939555
 262 C     6.0000    0    12.011   19.629341   -8.378479   -5.155740
 263 N     7.0000    0    14.007   17.330300   -8.458225   -4.178184
 264 H     1.0000    0     1.008   14.400469   -8.888705    1.402933
 265 H     1.0000    0     1.008   18.946961   -8.958247    1.942827
 266 H     1.0000    0     1.008   23.244576   -8.804045    0.075211
 267 H     1.0000    0     1.008   24.253312   -8.251300   -6.980270
 268 H     1.0000    0     1.008   25.439682  -10.132712   -4.481863
 269 H     1.0000    0     1.008   25.482579   -6.851391   -4.200483
 270 H     1.0000    0     1.008   19.748772   -8.224277   -7.190030
 271 N     7.0000    0    14.007   10.034446   -9.011159   -7.712161
 272 C     6.0000    0    12.011    9.681445  -11.344593   -8.218230
 273 C     6.0000    0    12.011   11.650351  -13.199359   -7.850678
 274 C     6.0000    0    12.011   11.334010  -15.704569   -8.623009
 275 C     6.0000    0    12.011   13.278350  -17.407590   -8.257158
 276 C     6.0000    0    12.011   15.514841  -16.597465   -7.111984
 277 C     6.0000    0    12.011   17.651743  -18.354532   -6.684150
 278 C     6.0000    0    12.011   15.641263  -14.052759   -6.395400
 279 N     7.0000    0    14.007   13.794245  -12.408131   -6.746889
 280 H     1.0000    0     1.008    7.894142  -12.024516   -8.987160
 281 H     1.0000    0     1.008    9.593951  -16.288872   -9.510803
 282 H     1.0000    0     1.008   13.082196  -19.349662   -8.849965
 283 H     1.0000    0     1.008   18.273652  -19.172783   -8.469375
 284 H     1.0000    0     1.008   17.052700  -19.934532   -5.506662
 285 H     1.0000    0     1.008   19.245349  -17.424220   -5.786719
 286 H     1.0000    0     1.008   17.333135  -13.338632   -5.498914
 287 N     7.0000    0    14.007   13.438598   -4.374905   -5.855883
 288 C     6.0000    0    12.011   14.732683   -3.421727   -7.662084
 289 C     6.0000    0    12.011   15.848377   -4.970925   -9.611147
 290 C     6.0000    0    12.011   17.223531   -3.891135  -11.591391
 291 C     6.0000    0    12.011   18.204866   -5.432774  -13.455039
 292 C     6.0000    0    12.011   17.787047   -8.037194  -13.339766
 293 C     6.0000    0    12.011   18.787279   -9.762892  -15.304325
 294 C     6.0000    0    12.011   16.385626   -8.933869  -11.282043
 295 N     7.0000    0    14.007   15.455314   -7.474245   -9.480567
 296 H     1.0000    0     1.008   14.964552   -1.384602   -7.869576
 297 H     1.0000    0     1.008   17.518706   -1.874608  -11.650918
 298 H     1.0000    0     1.008   19.283332   -4.641167  -14.995355
 299 H     1.0000    0     1.008   17.986224   -9.287437  -17.141706
 300 H     1.0000    0     1.008   18.365870  -11.728018  -14.889341
 301 H     1.0000    0     1.008   20.825727   -9.537259  -15.491030
 302 H     1.0000    0     1.008   16.016563  -10.936601  -11.106865
 303 Zn   30.0000    0    65.380    0.091652   15.818142   -5.313154
 304 N     7.0000    0    14.007   -3.376563   13.655161   -5.358696
 305 C     6.0000    0    12.011   -4.613388   14.084696   -7.386750
 306 C     6.0000    0    12.011   -3.773027   15.935494   -9.208446
 307 C     6.0000    0    12.011   -5.247014   16.555891  -11.309633
 308 C     6.0000    0    12.011   -4.378118   18.352075  -12.992623
 309 C     6.0000    0    12.011   -2.039581   19.501974  -12.570080
 310 C     6.0000    0    12.011   -1.031035   21.438565  -14.322045
 311 C     6.0000    0    12.011   -0.702033   18.742682  -10.416359
 312 N     7.0000    0    14.007   -1.523497   17.033613   -8.790061
 313 H     1.0000    0     1.008   -6.374046   13.099015   -7.807026
 314 H     1.0000    0     1.008   -7.050946   15.649578  -11.596115
 315 H     1.0000    0     1.008   -5.489465   18.870994  -14.622701
 316 H     1.0000    0     1.008   -0.842440   20.656974  -16.218197
 317 H     1.0000    0     1.008    0.794630   22.150803  -13.713176
 318 H     1.0000    0     1.008   -2.346095   23.015919  -14.479082
 319 H     1.0000    0     1.008    1.118151   19.578697  -10.011958
 320 N     7.0000    0    14.007    1.209047   14.719266   -1.525198
 321 C     6.0000    0    12.011    0.725655   16.530568    0.001134
 322 C     6.0000    0    12.011   -0.686915   18.732477   -0.775166
 323 C     6.0000    0    12.011   -1.240605   20.670013    0.932769
 324 C     6.0000    0    12.011   -2.657900   22.711107    0.133982
 325 C     6.0000    0    12.011   -3.530197   22.791798   -2.356677
 326 C     6.0000    0    12.011   -5.073159   24.932291   -3.292848
 327 C     6.0000    0    12.011   -2.874084   20.760342   -3.920048
 328 N     7.0000    0    14.007   -1.503277   18.808822   -3.176252
 329 H     1.0000    0     1.008    1.266683   16.444964    1.987803
 330 H     1.0000    0     1.008   -0.556713   20.568535    2.850841
 331 H     1.0000    0     1.008   -3.098017   24.234793    1.417295
 332 H     1.0000    0     1.008   -5.517244   24.745775   -5.287643
 333 H     1.0000    0     1.008   -4.092013   26.716570   -2.986145
 334 H     1.0000    0     1.008   -6.834384   25.055123   -2.231389
 335 H     1.0000    0     1.008   -3.499206   20.739744   -5.865899
 336 N     7.0000    0    14.007    2.575508   13.063488   -7.078725
 337 C     6.0000    0    12.011    4.776472   14.005705   -7.399601
 338 C     6.0000    0    12.011    5.316933   16.629023   -6.891642
 339 C     6.0000    0    12.011    7.664918   17.674231   -7.502213
 340 C     6.0000    0    12.011    8.094453   20.207031   -7.044332
 341 C     6.0000    0    12.011    6.176948   21.671757   -5.973802
 342 C     6.0000    0    12.011    6.538830   24.401467   -5.465088
 343 C     6.0000    0    12.011    3.901151   20.443813   -5.416711
 344 N     7.0000    0    14.007    3.469726   18.020050   -5.850214
 345 H     1.0000    0     1.008    6.331338   12.873381   -8.138861
 346 H     1.0000    0     1.008    9.112448   16.509781   -8.341629
 347 H     1.0000    0     1.008    9.887803   21.059108   -7.513173
 348 H     1.0000    0     1.008    8.143208   24.688327   -4.205963
 349 H     1.0000    0     1.008    4.872281   25.255623   -4.625672
 350 H     1.0000    0     1.008    6.992176   25.398675   -7.209494
 351 H     1.0000    0     1.008    2.364614   21.508485   -4.591468

--------------------------------
INTERNAL COORDINATES (ANGSTROEM)
--------------------------------
 C      0   0   0     0.000000000000     0.00000000     0.00000000
 C      1   0   0     1.393316478766     0.00000000     0.00000000
 C      2   1   0     1.381855813752   120.45815658     0.00000000
 C      1   2   3     1.395858538678   118.61017113     2.00658647
 C      4   1   2     1.379027461655   120.44986884   356.19957467
 C      5   4   1     1.395186489327   121.36829745     2.08887117
 C      6   5   4     1.473870903438   120.47541835   183.32453631
 C      7   6   5     1.393096044787   120.32347564   142.16886033
 C      8   7   6     1.393087459566   121.26652736   183.27442641
 C      9   8   7     1.473632946157   120.99264209   176.87218583
 C     10   9   8     1.394954386351   120.58461749   325.05095223
 C     11  10   9     1.379134311806   121.34451472   183.50161274
 C     12  11  10     1.395769529686   120.43547405     2.08273828
 C     13  12  11     1.393342965676   118.63763232   356.08853373
 C     14  13  12     1.381629697133   120.44082951     2.10957226
 C      9   8   7     1.392952023582   118.73195200   359.80161507
 C     16   9   8     1.392932999107   121.26528794     0.17951503
 C     17  16   9     1.473752221372   120.81478587   176.74324370
 C     18  17  16     1.394993057330   120.45019146   324.54066132
 C     19  18  17     1.379143360931   121.35603833   183.40094890
 C     20  19  18     1.395687690710   120.42240450     2.07222724
 C     21  20  19     1.393336190587   118.63564443   356.07177898
 C     22  21  20     1.381812599450   120.45428608     2.17184432
 C     17  16   9     1.392910223238   118.75113360   359.69699045
 H      2   1   3     1.079762760980   119.17994892   182.16111438
 H      3   2   1     1.079689960127   119.14793370   182.64759635
 H      4   1   2     1.080223430592   119.37868359   179.71757848
 H      5   4   1     1.079303965526   118.90804291   183.48925335
 H      8   7   6     1.079086965911   119.31190902     3.29624474
 H     11  10   9     1.079378737978   119.71629825     2.03846278
 H     12  11  10     1.080130552294   120.07898815   178.55161085
 H     14  13  12     1.079774444039   119.19635296   184.23114198
 H     15  14  13     1.079610503839   119.15845808   182.64836996
 H     16   9   8     1.079126818312   119.32711569   180.20923632
 H     19  18  17     1.079376352344   119.68731680     1.98507426
 H     20  19  18     1.080154965734   120.10778674   178.56482111
 H     22  21  20     1.079826467540   119.20042921   184.27883107
 H     23  22  21     1.079752096548   119.19034269   182.55572201
 H     24  17  16     1.079067347296   119.28783970   180.42070431
 C     27   4   1     3.481472483016   101.99527717    58.96811136
 C     40  27   4     1.393947079340    55.23757280    45.62147591
 C     41  40  27     1.379300790256   120.51665114    84.44083260
 C     40  27   4     1.397572044655   100.96788441   163.07098288
 C     43  40  27     1.382756081165   120.44986687   303.03887965
 C     44  43  40     1.392006314641   120.79501722     0.03325157
 C     45  44  43     1.480502151299   122.24392052   178.39421054
 C     46  45  44     1.389306827162   118.89613130   249.00620304
 C     47  46  45     1.393363427107   120.99754404   182.09552868
 C     48  47  46     1.472298186510   120.51818015   178.92600792
 C     49  48  47     1.396483326073   121.83854930   146.87786454
 C     50  49  48     1.380575539404   121.27059955   177.27517966
 C     51  50  49     1.394172051793   120.37419464     1.64126753
 C     52  51  50     1.395638656673   118.75208764     0.96802130
 C     53  52  51     1.379104513806   120.38142941   356.97493570
 C     48  47  46     1.392290364831   118.50402425     0.64259552
 C     55  48  47     1.393431394077   121.45817321   359.88808371
 C     56  55  48     1.472619319444   120.46930266   177.43371424
 C     57  56  55     1.395130484937   120.40528738   325.93854188
 C     58  57  56     1.379436562514   121.19144848   181.22770893
 C     59  58  57     1.395772137564   120.49259185     2.43136889
 C     60  59  58     1.394425824488   118.71251562   356.76651529
 C     61  60  59     1.380506153554   120.33969569     1.28761090
 C     46  45  44     1.388470802718   121.44427378    71.50216222
 H     41  40  27     1.076269422589   119.40475935   262.81370465
 H     42  41  40     1.080258311701   119.45410297   178.97185859
 H     43  40  27     1.079763613019   120.07250808   120.64847027
 H     44  43  40     1.079396785246   119.60232394   179.07472369
 H     47  46  45     1.079505090308   118.79184631     4.39167428
 H     50  49  48     1.078789604140   119.67807637   356.13756555
 H     51  50  49     1.079062634883   120.30916993   179.62157447
 H     53  52  51     1.079342517461   119.36898915   180.46226957
 H     54  53  52     1.079284897513   118.93192646   183.75695415
 H     55  48  47     1.079066091581   119.10742443   179.83911922
 H     58  57  56     1.079640981994   119.80710633   359.96437433
 H     59  58  57     1.079200880281   120.06120867   178.89635766
 H     61  60  59     1.078984772830   119.29752178   183.08224910
 H     62  61  60     1.078918518703   119.02042554   182.49460074
 H     63  46  45     1.079672306767   119.28774580   359.37964865
 C     64  41  40     2.456418875111   141.54271681   311.90263842
 C     79  64  41     1.394200164969    88.93862116   337.43527858
 C     80  79  64     1.380859895138   120.38924298   280.00285394
 C     79  64  41     1.395698610016    82.57835230   218.27012139
 C     82  79  64     1.378779347829   120.38733246    81.78338919
 C     83  82  79     1.395040963556   121.34284644     2.47899366
 C     84  83  82     1.472164620550   120.15989049   180.45060649
 C     85  84  83     1.394498106847   121.24070824   144.22372528
 C     86  85  84     1.388894592833   120.82476890   182.80543018
 C     87  86  85     1.481226555933   120.98169325   175.95171636
 C     88  87  86     1.392324369535   119.06082466   253.08536856
 C     89  88  87     1.379463845122   120.95791919   181.23976360
 C     90  89  88     1.393896542072   120.47899553   358.97895075
 C     91  90  89     1.397215595390   118.75015421     1.36846074
 C     92  91  90     1.383029414004   120.42885028   359.23288760
 C     87  86  85     1.391200276739   119.64946363   359.22889958
 C     94  87  86     1.388704932662   120.39547019     0.31816301
 C     95  94  87     1.480980172048   121.07823301   176.93433642
 C     96  95  94     1.391787196377   122.39260920    74.56096150
 C     97  96  95     1.382966528879   120.77305881   179.49031238
 C     98  97  96     1.397321580739   120.43204356   359.89925004
 C     99  98  97     1.393778626612   118.73758234   359.14496448
 C    100  99  98     1.379356389770   120.50037661     1.37890239
 C     95  94  87     1.388485815556   119.31665169     0.26724774
 H     80  79  64     1.079044711771   119.28919680   101.92243543
 H     81  80  79     1.078810349413   119.07584926   182.53675116
 H     82  79  64     1.079328166037   119.36574943   265.26769479
 H     83  82  79     1.079222006818   118.89253721   183.71582526
 H     86  85  84     1.079858499990   119.97510329     0.31897869
 H     89  88  87     1.080248170561   119.58911047     1.40963652
 H     90  89  88     1.076334673789   120.02965686   180.72353892
 H     92  91  90     1.079885780997   120.02347435   176.99831998
 H     93  92  91     1.079535627017   119.57755828   179.17681235
 H     94  87  86     1.080159867797   119.72972445   180.07568717
 H     97  96  95     1.079422817991   119.61095949     0.15444512
 H     98  97  96     1.079801768845   119.47495258   182.11445903
 H    100  99  98     1.076207661188   119.42310735   179.63367596
 H    101 100  99     1.080341473794   119.47049110   178.82784945
 H    102  95  94     1.079666008542   118.70274229   181.50746325
 C     36  20  19     3.472461377755   102.40173184   242.49157115
 C    118  36  20     1.393948237920    55.11500711    46.71155867
 C    119 118  36     1.379385044141   120.49239104    84.30159428
 C    118  36  20     1.397543416141   100.99410904   164.16081172
 C    121 118  36     1.382976547162   120.47106745   303.24004429
 C    122 121 118     1.391935494195   120.78760312     0.05390068
 C    123 122 121     1.480618549796   122.37292040   178.60398627
 C    124 123 122     1.389202278288   119.03055644   248.02364100
 C    125 124 123     1.393671772693   121.05764043   182.63623744
 C    126 125 124     1.472707418329   120.33446820   179.11117113
 C    127 126 125     1.395145594553   120.32284206   326.77430745
 C    128 127 126     1.379093111432   121.35067839   180.12693180
 C    129 128 127     1.395630731963   120.39310444     2.56880437
 C    130 129 128     1.394231347374   118.73154219   357.20971536
 C    131 130 129     1.380848239308   120.38551555     0.69834808
 C    126 125 124     1.392779142578   118.51053655     0.85308212
 C    133 126 125     1.393326386745   121.41593720   359.56838136
 C    134 133 126     1.472943291509   120.88768582   176.43892610
 C    135 134 133     1.395201161123   120.50804952   325.45137316
 C    136 135 134     1.379166944209   121.23125549   183.85233772
 C    137 136 135     1.395994054429   120.48220110     1.98898322
 C    138 137 136     1.393308745397   118.65104533   355.93928443
 C    139 138 137     1.381223736402   120.40639465     2.32692828
 C    124 123 122     1.388292584436   121.40368660    70.90303599
 H    119 118  36     1.076446649862   119.40951441   262.68865944
 H    120 119 118     1.080353173735   119.42892867   178.99694439
 H    121 118  36     1.079814382197   120.04482585   120.87068175
 H    122 121 118     1.079481940562   119.58589773   179.04256541
 H    125 124 123     1.079437983397   118.73867680     4.87880133
 H    128 127 126     1.079237832917   119.76937774   358.97035642
 H    129 128 127     1.079400356680   120.15752872   179.07941716
 H    131 130 129     1.079048757008   119.28994394   182.72441733
 H    132 131 130     1.078906970040   119.00360293   182.84613903
 H    133 126 125     1.079118830343   119.17967783   179.48471754
 H    136 135 134     1.079562142723   119.71574058     2.28109328
 H    137 136 135     1.080258459814   120.02950682   178.31085156
 H    139 138 137     1.079822814169   119.14293188   184.40475649
 H    140 139 138     1.079548262006   119.19520080   182.50610200
 H    141 124 123     1.079632761637   119.18561877   358.55323675
 Zn    79  64  41     3.226993820880    68.95315304    81.35243942
 N      1   2   3     1.399499549839   120.71846375   183.27319435
 C    158   1   2     1.278216761743   118.78233060   227.90117330
 C    159 158   1     1.442626458928   122.20594350   182.36140208
 C    160 159 158     1.397834242677   120.87691273   186.44509510
 C    161 160 159     1.380863664523   119.33641298   178.33916960
 C    162 161 160     1.396970182216   119.34498526     0.16049913
 C    163 162 161     1.481789637567   121.37027920   180.52494336
 C    163 162 161     1.399771784971   116.92312177     0.25470133
 N    165 163 162     1.322723149416   124.19225837   359.66107562
 H    159 158   1     1.090441768276   121.35651738     4.65838788
 H    161 160 159     1.078854786336   120.03285522   359.00022753
 H    162 161 160     1.079457169136   120.65113669   180.45639123
 H    164 163 162     1.090029109703   110.26090939    58.97264385
 H    164 163 162     1.089820576976   110.33971148   301.98987164
 H    164 163 162     1.085995451188   112.04043409   180.40823669
 H    165 163 162     1.081419465332   119.35852907   180.14947527
 N     79  64  41     1.398118539323    95.51001071    98.41443075
 C    174  79  64     1.277450406082   119.86177575   137.50795784
 C    175 174  79     1.444433293718   121.54308987   184.31525335
 C    176 175 174     1.397346864597   121.25804221   185.95569203
 C    177 176 175     1.381472004783   119.25398219   179.49982204
 C    178 177 176     1.397074532729   119.44137120     0.36367796
 C    179 178 177     1.481404580120   121.35301122   180.03856521
 C    179 178 177     1.400517068800   116.93381137   359.92057364
 N    181 179 178     1.321836037487   124.03059014   359.78305449
 H    175 174  79     1.090679260828   121.59795514     5.53547774
 H    177 176 175     1.078990945282   120.09973985     0.09722572
 H    178 177 176     1.079480639011   120.57823827   180.41361964
 H    180 179 178     1.089987045795   110.28311845   300.94955429
 H    180 179 178     1.085834356612   112.02819648   179.51303191
 H    180 179 178     1.089978646580   110.33023234    57.93157082
 H    181 179 178     1.081432133793   119.62608028   179.90799052
 N     40  27   4     1.398906333533   111.61264946   295.36662513
 C    190  40  27     1.279701500351   119.52248965   200.64365222
 C    191 190  40     1.443623967659   121.97543403   183.52585447
 C    192 191 190     1.398055921628   121.05082323   179.16089696
 C    193 192 191     1.381113568828   119.31706799   181.66483324
 C    194 193 192     1.397159454035   119.45987392     0.56169244
 C    195 194 193     1.481565391739   121.38894320   179.57147091
 C    195 194 193     1.400264535722   116.87528245   359.47537875
 N    197 195 194     1.321975586008   124.06408945     0.03133675
 H    191 190  40     1.090352034895   121.66036900     0.09723973
 H    193 192 191     1.078979119353   120.08314537     1.99116977
 H    194 193 192     1.079562045461   120.57758878   180.40788675
 H    196 195 194     1.090243706700   110.15978049   298.68270648
 H    196 195 194     1.085872022846   112.01895738   177.48814202
 H    196 195 194     1.089698710654   110.47471328    55.68679688
 H    197 195 194     1.081620159760   119.59810771   180.16780086
 Zn    52  51  50     3.223323238523   102.46852271   211.75084461
 N     21  20  19     1.399482007744   120.66355645   174.75190175
 C    207  21  20     1.278107542424   118.89569629    49.41745687
 C    208 207  21     1.442828458272   122.13940364   182.27750294
 C    209 208 207     1.397778945327   120.90926205   186.56604519
 C    210 209 208     1.380942522338   119.33072471   178.27213829
 C    211 210 209     1.396928724023   119.35216101     0.16227037
 C    212 211 210     1.481808169096   121.37318793   180.54439664
 C    212 211 210     1.399826067767   116.92293484     0.26420983
 N    214 212 211     1.322702876688   124.18007479   359.64959595
 H    208 207  21     1.090482324478   121.38443843     4.61862859
 H    210 209 208     1.078842945011   120.03611972   358.94292535
 H    211 210 209     1.079447807909   120.64151798   180.47140162
 H    213 212 211     1.090066282388   110.25267855    59.19520507
 H    213 212 211     1.089796375476   110.35325730   302.20943453
 H    213 212 211     1.086046670268   112.03592820   180.60384269
 H    214 212 211     1.081408775626   119.36846976   180.12937333
 N     52  51  50     1.398030951016   120.78062374   184.05510451
 C    223  52  51     1.277337735292   119.91606621   229.89167557
 C    224 223  52     1.444610210403   121.51333385   183.94704130
 C    225 224 223     1.397270414057   121.27130000   185.95275978
 C    226 225 224     1.381386745267   119.24908491   179.40039973
 C    227 226 225     1.397049276153   119.44981801     0.34751341
 C    228 227 226     1.481426899985   121.35224853   180.06205851
 C    228 227 226     1.400527711257   116.92948588   359.93862285
 N    230 228 227     1.321785175435   124.02942651   359.78382484
 H    224 223  52     1.090663151482   121.60519579     5.27359191
 H    226 225 224     1.078981612448   120.10350137     0.00000000
 H    227 226 225     1.079525266031   120.57591183   180.41861280
 H    229 228 227     1.085949704176   112.02850883   179.53068110
 H    229 228 227     1.089946186745   110.33541465    57.95905932
 H    229 228 227     1.089858747728   110.28811720   300.97112481
 H    230 228 227     1.081470175271   119.63041571   179.91665140
 N    118  36  20     1.399233926118   111.67687224   296.43222220
 C    239 118  36     1.279598507345   119.45920544   200.00220209
 C    240 239 118     1.443664330792   121.99883519   183.30542106
 C    241 240 239     1.397941776327   121.04608125   178.96741408
 C    242 241 240     1.381181295124   119.31300901   181.62456752
 C    243 242 241     1.397195104486   119.46085379     0.54328975
 C    244 243 242     1.481546114706   121.38940843   179.58946878
 C    244 243 242     1.400292676550   116.87741353   359.49128213
 N    246 244 243     1.321950986232   124.05789066     0.03176820
 H    240 239 118     1.090418864474   121.65733012   359.93591669
 H    242 241 240     1.078874241976   120.10333745     1.92189721
 H    243 242 241     1.079602681545   120.57840395   180.39339729
 H    245 244 243     1.085913352897   112.02385661   177.56060938
 H    245 244 243     1.089730379498   110.46736426    55.76180006
 H    245 244 243     1.090207365596   110.16240107   298.76284006
 H    246 244 243     1.081569396756   119.60694752   180.17120165
 Zn   130 129 128     3.230552205119   128.94548950   137.26079508
 N     13  12  11     1.399256584762   120.72721628   174.77597367
 C    256  13  12     1.278170043461   118.88903400    49.20484387
 C    257 256  13     1.442695809934   122.14422479   182.26801747
 C    258 257 256     1.397878843105   120.89400309   186.54826465
 C    259 258 257     1.380827961768   119.32556243   178.26886192
 C    260 259 258     1.396906528727   119.35372856     0.16238078
 C    261 260 259     1.481808550387   121.38015763   180.53931998
 C    261 260 259     1.399881209246   116.91959750     0.25968593
 N    263 261 260     1.322685030534   124.19515504   359.65669381
 H    257 256  13     1.090447137646   121.37289422     4.61867211
 H    259 258 257     1.078822033516   120.02772924   358.94056400
 H    260 259 258     1.079533422364   120.64813157   180.46007798
 H    262 261 260     1.085956504654   112.03691895   180.38872756
 H    262 261 260     1.090008256849   110.25908233    58.96076231
 H    262 261 260     1.089734086830   110.34039085   301.98039187
 H    263 261 260     1.081436567719   119.34945373   180.15108936
 N    130 129 128     1.398452326681   120.36681718   174.17490302
 C    272 130 129     1.277240040086   119.81731609    53.48540503
 C    273 272 130     1.444551179433   121.54415833   183.76157423
 C    274 273 272     1.397332795006   121.25381164   185.95297048
 C    275 274 273     1.381404216730   119.25619728   179.32766211
 C    276 275 274     1.397029684724   119.44442902     0.33488159
 C    277 276 275     1.481382340924   121.35613207   180.09100980
 C    277 276 275     1.400571244171   116.93307361   359.95996107
 N    279 277 276     1.321865670180   124.02820385   359.76977725
 H    273 272 130     1.090670110528   121.59937344     5.13555089
 H    275 274 273     1.078976051634   120.09708284   359.91840064
 H    276 275 274     1.079513510800   120.57883875   180.42062688
 H    278 277 276     1.090070594044   110.32398603    58.13120890
 H    278 277 276     1.089865046692   110.29553664   301.15036616
 H    278 277 276     1.085838012781   112.03113277   179.68909511
 H    279 277 276     1.081399953764   119.62414364   179.89120170
 N     99  98  97     1.399244960684   122.95749150   177.90729527
 C    288  99  98     1.279423323220   119.52787358   319.91769363
 C    289 288  99     1.443755574881   121.91801673   183.59529868
 C    290 289 288     1.397905454600   121.08406732   179.00141292
 C    291 290 289     1.381228645084   119.30927597   181.68728270
 C    292 291 290     1.397154769523   119.46882495     0.56508315
 C    293 292 291     1.481506290908   121.39007432   179.57911700
 C    293 292 291     1.400294261932   116.87342682   359.47324312
 N    295 293 292     1.322021913585   124.05397540     0.03730522
 H    289 288  99     1.090502329204   121.67922520     0.15014341
 H    291 290 289     1.078931462142   120.10069735     1.99285510
 H    292 291 290     1.079612759280   120.57317505   180.40456922
 H    294 293 292     1.090119745716   110.16252193   298.68287109
 H    294 293 292     1.085976597354   112.02339796   177.48514158
 H    294 293 292     1.089775889805   110.47041465    55.68585858
 H    295 293 292     1.081624435745   119.62305998   180.16735668
 Zn    60  59  58     3.231593121047   129.84977211   136.84854349
 N     60  59  58     1.398024570600   120.45531612   173.71670626
 C    305  60  59     1.277416838781   119.82703567    52.21382864
 C    306 305  60     1.444395531009   121.57529888   184.07948717
 C    307 306 305     1.397319755818   121.23378606   185.73327509
 C    308 307 306     1.381316274428   119.26890595   179.47364126
 C    309 308 307     1.397023786483   119.43173554     0.35548405
 C    310 309 308     1.481406473592   121.35084949   180.02831695
 C    310 309 308     1.400478550353   116.93464198   359.90329555
 N    312 310 309     1.321943951157   124.04738429   359.79964398
 H    306 305  60     1.090684743636   121.59370130     5.33807088
 H    308 307 306     1.079008748806   120.08073955     0.06158130
 H    309 308 307     1.079511709061   120.58994985   180.40280855
 H    311 310 309     1.089879149264   110.28152773   300.94242210
 H    311 310 309     1.085916967360   112.01994877   179.51790318
 H    311 310 309     1.089911239505   110.33321960    57.94550584
 H    312 310 309     1.081326962579   119.59474019   179.92973038
 N     91  90  89     1.399562578094   118.40377497   182.57430664
 C    321  91  90     1.279271347291   119.47552238   137.94889264
 C    322 321  91     1.444023521277   121.90250280   183.67943637
 C    323 322 321     1.397835301457   121.09303385   178.70218742
 C    324 323 322     1.381228185348   119.30936269   181.82675488
 C    325 324 323     1.397147755250   119.47168353     0.56045262
 C    326 325 324     1.481587898169   121.39064192   179.51955650
 C    326 325 324     1.400213601562   116.87080674   359.42420034
 N    328 326 325     1.321966493524   124.04855896     0.09026372
 H    322 321  91     1.090528069332   121.67122212     0.14156178
 H    324 323 322     1.078925530331   120.09574763     2.11059693
 H    325 324 323     1.079601273619   120.57473129   180.39622530
 H    327 326 325     1.085936485251   112.01213074   177.24150095
 H    327 326 325     1.089689666832   110.49111360    55.42468237
 H    327 326 325     1.090117374414   110.14877337   298.40354077
 H    328 326 325     1.081586584606   119.62973030   180.21518689
 N    138 137 136     1.398467010694   120.74779457   174.35593511
 C    337 138 137     1.278264483587   119.03382569    48.40159266
 C    338 337 138     1.442618688358   122.08877243   182.80446014
 C    339 338 337     1.397898233063   120.92299293   186.64939761
 C    340 339 338     1.380861568007   119.32710258   178.45517359
 C    341 340 339     1.396895969641   119.35139708     0.18199044
 C    342 341 340     1.481796591979   121.37965883   180.48951098
 C    342 341 340     1.399816262943   116.92160988     0.22045741
 N    344 342 341     1.322803088143   124.19808394   359.69276348
 H    338 337 138     1.090448494886   121.38815728     5.00366857
 H    340 339 338     1.078782684325   120.01937536   359.13869091
 H    341 340 339     1.079567237369   120.64866380   180.46519031
 H    343 342 341     1.089862344519   110.33561272   301.77955167
 H    343 342 341     1.085985842449   112.03026596   180.22087174
 H    343 342 341     1.090015096226   110.27508557    58.77741241
 H    344 342 341     1.081322366364   119.34789335   180.18710866

---------------------------
INTERNAL COORDINATES (A.U.)
---------------------------
 C      0   0   0     0.000000000000     0.00000000     0.00000000
 C      1   0   0     2.632986562747     0.00000000     0.00000000
 C      2   1   0     2.611329044558   120.45815658     0.00000000
 C      1   2   3     2.637790359797   118.61017113     2.00658647
 C      4   1   2     2.605984233685   120.44986884   356.19957467
 C      5   4   1     2.636520370575   121.36829745     2.08887117
 C      6   5   4     2.785212364252   120.47541835   183.32453631
 C      7   6   5     2.632570002896   120.32347564   142.16886033
 C      8   7   6     2.632553779180   121.26652736   183.27442641
 C      9   8   7     2.784762690161   120.99264209   176.87218583
 C     10   9   8     2.636081759516   120.58461749   325.05095223
 C     11  10   9     2.606186151207   121.34451472   183.50161274
 C     12  11  10     2.637622157179   120.43547405     2.08273828
 C     13  12  11     2.633036615754   118.63763232   356.08853373
 C     14  13  12     2.610901746074   120.44082951     2.10957226
 C      9   8   7     2.632297842261   118.73195200   359.80161507
 C     16   9   8     2.632261891213   121.26528794     0.17951503
 C     17  16   9     2.784988087652   120.81478587   176.74324370
 C     18  17  16     2.636154837076   120.45019146   324.54066132
 C     19  18  17     2.606203251575   121.35603833   183.40094890
 C     20  19  18     2.637467503927   120.42240450     2.07222724
 C     21  20  19     2.633023812691   118.63564443   356.07177898
 C     22  21  20     2.611247381363   120.45428608     2.17184432
 C     17  16   9     2.632218851058   118.75113360   359.69699045
 H      2   1   3     2.040455907860   119.17994892   182.16111438
 H      3   2   1     2.040318334185   119.14793370   182.64759635
 H      4   1   2     2.041326447264   119.37868359   179.71757848
 H      5   4   1     2.039588910099   118.90804291   183.48925335
 H      8   7   6     2.039178840257   119.31190902     3.29624474
 H     11  10   9     2.039730209557   119.71629825     2.03846278
 H     12  11  10     2.041150932718   120.07898815   178.55161085
 H     14  13  12     2.040477985641   119.19635296   184.23114198
 H     15  14  13     2.040168183561   119.15845808   182.64836996
 H     16   9   8     2.039254150379   119.32711569   180.20923632
 H     19  18  17     2.039725701362   119.68731680     1.98507426
 H     20  19  18     2.041197067433   120.10778674   178.56482111
 H     22  21  20     2.040576295810   119.20042921   184.27883107
 H     23  22  21     2.040435755003   119.19034269   182.55572201
 H     24  17  16     2.039141766446   119.28783970   180.42070431
 C     27   4   1     6.579029535684   101.99527717    58.96811136
 C     40  27   4     2.634178225132    55.23757280    45.62147591
 C     41  40  27     2.606500749884   120.51665114    84.44083260
 C     40  27   4     2.641028416822   100.96788441   163.07098288
 C     43  40  27     2.613030303417   120.44986687   303.03887965
 C     44  43  40     2.630510711360   120.79501722     0.03325157
 C     45  44  43     2.797743606636   122.24392052   178.39421054
 C     46  45  44     2.625409419324   118.89613130   249.00620304
 C     47  46  45     2.633075282255   120.99754404   182.09552868
 C     48  47  46     2.782240359972   120.51818015   178.92600792
 C     49  48  47     2.638971036865   121.83854930   146.87786454
 C     50  49  48     2.608909676664   121.27059955   177.27517966
 C     51  50  49     2.634603361455   120.37419464     1.64126753
 C     52  51  50     2.637374843026   118.75208764     0.96802130
 C     53  52  51     2.606129841148   120.38142941   356.97493570
 C     48  47  46     2.631047488427   118.50402425     0.64259552
 C     55  48  47     2.633203721214   121.45817321   359.88808371
 C     56  55  48     2.782847213271   120.46930266   177.43371424
 C     57  56  55     2.636414537615   120.40528738   325.93854188
 C     58  57  56     2.606757322269   121.19144848   181.22770893
 C     59  58  57     2.637627085354   120.49259185     2.43136889
 C     60  59  58     2.635082922350   118.71251562   356.76651529
 C     61  60  59     2.608778556410   120.33969569     1.28761090
 C     46  45  44     2.623829562083   121.44427378    71.50216222
 H     41  40  27     2.033854455007   119.40475935   262.81370465
 H     42  41  40     2.041392363008   119.45410297   178.97185859
 H     43  40  27     2.040457517979   120.07250808   120.64847027
 H     44  43  40     2.039764313950   119.60232394   179.07472369
 H     47  46  45     2.039968980855   118.79184631     4.39167428
 H     50  49  48     2.038616907945   119.67807637   356.13756555
 H     51  50  49     2.039132861276   120.30916993   179.62157447
 H     53  52  51     2.039661762699   119.36898915   180.46226957
 H     54  53  52     2.039552876777   118.93192646   183.75695415
 H     55  48  47     2.039139393489   119.10742443   179.83911922
 H     58  57  56     2.040225778926   119.80710633   359.96437433
 H     59  58  57     2.039394107218   120.06120867   178.89635766
[...]
300 H      0.8374     1.0000     0.1626     0.9613     0.9613     0.0000
301 H      0.7971     1.0000     0.2029     0.9467     0.9467     0.0000
302 H      0.8495     1.0000     0.1505     0.9668     0.9668    -0.0000
303 Zn    29.6980    30.0000     0.3020     2.7271     2.7271    -0.0000
304 N      6.8762     7.0000     0.1238     3.0391     3.0391     0.0000
305 C      6.2410     6.0000    -0.2410     3.9256     3.9256     0.0000
306 C      5.7888     6.0000     0.2112     3.5833     3.5833     0.0000
307 C      6.0966     6.0000    -0.0966     3.7469     3.7469     0.0000
308 C      6.1611     6.0000    -0.1611     3.8540     3.8540     0.0000
309 C      5.8018     6.0000     0.1982     3.4063     3.4063     0.0000
310 C      6.4941     6.0000    -0.4941     3.7861     3.7861     0.0000
311 C      6.1795     6.0000    -0.1795     3.9978     3.9978    -0.0000
312 N      6.9538     7.0000     0.0462     3.2098     3.2098     0.0000
313 H      0.8492     1.0000     0.1508     0.9709     0.9709     0.0000
314 H      0.8291     1.0000     0.1709     0.9618     0.9618     0.0000
315 H      0.8216     1.0000     0.1784     0.9591     0.9591     0.0000
316 H      0.7949     1.0000     0.2051     0.9461     0.9461    -0.0000
317 H      0.8380     1.0000     0.1620     0.9615     0.9615    -0.0000
318 H      0.7945     1.0000     0.2055     0.9457     0.9457     0.0000
319 H      0.8510     1.0000     0.1490     0.9677     0.9677    -0.0000
320 N      6.8697     7.0000     0.1303     3.1257     3.1257    -0.0000
321 C      6.2034     6.0000    -0.2034     3.9571     3.9571    -0.0000
322 C      5.8365     6.0000     0.1635     3.7063     3.7063    -0.0000
323 C      6.1104     6.0000    -0.1104     3.7428     3.7428    -0.0000
324 C      6.1550     6.0000    -0.1550     3.8461     3.8461     0.0000
325 C      5.8160     6.0000     0.1840     3.4239     3.4239    -0.0000
326 C      6.4936     6.0000    -0.4936     3.7865     3.7865     0.0000
327 C      6.1736     6.0000    -0.1736     3.9776     3.9776     0.0000
328 N      6.9615     7.0000     0.0385     3.1986     3.1986    -0.0000
329 H      0.8505     1.0000     0.1495     0.9715     0.9715    -0.0000
330 H      0.8295     1.0000     0.1705     0.9621     0.9621    -0.0000
331 H      0.8217     1.0000     0.1783     0.9592     0.9592     0.0000
332 H      0.8373     1.0000     0.1627     0.9613     0.9613    -0.0000
333 H      0.7976     1.0000     0.2024     0.9469     0.9469     0.0000
334 H      0.7929     1.0000     0.2071     0.9455     0.9455     0.0000
335 H      0.8495     1.0000     0.1505     0.9667     0.9667     0.0000
336 N      6.9023     7.0000     0.0977     3.1057     3.1057    -0.0000
337 C      6.1916     6.0000    -0.1916     3.9419     3.9419    -0.0000
338 C      5.8015     6.0000     0.1985     3.6613     3.6613     0.0000
339 C      6.0899     6.0000    -0.0899     3.7302     3.7302    -0.0000
340 C      6.1686     6.0000    -0.1686     3.8509     3.8509    -0.0000
341 C      5.8032     6.0000     0.1968     3.4101     3.4101    -0.0000
342 C      6.4960     6.0000    -0.4960     3.7846     3.7846    -0.0000
343 C      6.1746     6.0000    -0.1746     3.9756     3.9756    -0.0000
344 N      6.9708     7.0000     0.0292     3.2072     3.2072    -0.0000
345 H      0.8517     1.0000     0.1483     0.9720     0.9720    -0.0000
346 H      0.8297     1.0000     0.1703     0.9620     0.9620    -0.0000
347 H      0.8224     1.0000     0.1776     0.9595     0.9595     0.0000
348 H      0.7965     1.0000     0.2035     0.9465     0.9465    -0.0000
349 H      0.8386     1.0000     0.1614     0.9616     0.9616    -0.0000
350 H      0.7936     1.0000     0.2064     0.9455     0.9455    -0.0000
351 H      0.8480     1.0000     0.1520     0.9667     0.9667     0.0000

  Mayer bond orders larger than 0.100000
B(  0-C ,  1-C ) :   1.3574 B(  0-C ,  3-C ) :   1.3085 B(  0-C ,157-N ) :   0.8228 
B(  1-C ,  2-C ) :   1.3521 B(  1-C , 24-H ) :   0.9630 B(  2-C ,  5-C ) :   1.2724 
B(  2-C , 25-H ) :   0.9591 B(  3-C ,  4-C ) :   1.4076 B(  3-C , 26-H ) :   0.9391 
B(  4-C ,  5-C ) :   1.4131 B(  4-C , 27-H ) :   0.9221 B(  5-C ,  6-C ) :   0.7282 
B(  6-C ,  7-C ) :   1.3700 B(  6-C , 23-C ) :   1.4066 B(  7-C ,  8-C ) :   1.4075 
B(  7-C , 28-H ) :   0.9022 B(  8-C ,  9-C ) :   0.7281 B(  8-C , 15-C ) :   1.3719 
B(  9-C , 10-C ) :   1.4105 B(  9-C , 14-C ) :   1.2699 B( 10-C , 11-C ) :   1.4084 
B( 10-C , 29-H ) :   0.9232 B( 11-C , 12-C ) :   1.3091 B( 11-C , 30-H ) :   0.9390 
B( 12-C , 13-C ) :   1.3547 B( 12-C ,255-N ) :   0.8224 B( 13-C , 14-C ) :   1.3533 
B( 13-C , 31-H ) :   0.9631 B( 14-C , 32-H ) :   0.9600 B( 15-C , 16-C ) :   1.4061 
B( 15-C , 33-H ) :   0.9009 B( 16-C , 17-C ) :   0.7269 B( 16-C , 23-C ) :   1.3722 
B( 17-C , 18-C ) :   1.4144 B( 17-C , 22-C ) :   1.2696 B( 18-C , 19-C ) :   1.4039 
B( 18-C , 34-H ) :   0.9229 B( 19-C , 20-C ) :   1.3102 B( 19-C , 35-H ) :   0.9394 
B( 20-C , 21-C ) :   1.3550 B( 20-C ,206-N ) :   0.8214 B( 21-C , 22-C ) :   1.3520 
B( 21-C , 36-H ) :   0.9635 B( 22-C , 37-H ) :   0.9612 B( 23-C , 38-H ) :   0.9016 
B( 39-C , 40-C ) :   1.4205 B( 39-C , 42-C ) :   1.2277 B( 39-C ,189-N ) :   0.8732 
B( 40-C , 41-C ) :   1.4086 B( 40-C , 63-H ) :   0.8803 B( 41-C , 44-C ) :   1.4019 
B( 41-C , 64-H ) :   0.9363 B( 42-C , 43-C ) :   1.3917 B( 42-C , 65-H ) :   0.9690 
B( 43-C , 44-C ) :   1.3712 B( 43-C , 66-H ) :   0.9543 B( 44-C , 45-C ) :   0.6800 
B( 45-C , 46-C ) :   1.4231 B( 45-C , 62-C ) :   1.4297 B( 46-C , 47-C ) :   1.3641 
B( 46-C , 67-H ) :   0.9211 B( 47-C , 48-C ) :   0.7637 B( 47-C , 54-C ) :   1.3845 
B( 48-C , 49-C ) :   1.3113 B( 48-C , 53-C ) :   1.3948 B( 49-C , 50-C ) :   1.3733 
B( 49-C , 68-H ) :   0.9443 B( 50-C , 51-C ) :   1.3743 B( 50-C , 69-H ) :   0.9574 
B( 51-C , 52-C ) :   1.3233 B( 51-C ,222-N ) :   0.8191 B( 52-C , 53-C ) :   1.4359 
B( 52-C , 70-H ) :   0.9098 B( 53-C , 71-H ) :   0.9167 B( 54-C , 55-C ) :   1.3978 
B( 54-C , 72-H ) :   0.9047 B( 55-C , 56-C ) :   0.7599 B( 55-C , 62-C ) :   1.3604 
B( 56-C , 57-C ) :   1.4103 B( 56-C , 61-C ) :   1.3038 B( 57-C , 58-C ) :   1.4271 
B( 57-C , 73-H ) :   0.9191 B( 58-C , 59-C ) :   1.3227 B( 58-C , 74-H ) :   0.9098 
B( 59-C , 60-C ) :   1.3770 B( 59-C ,304-N ) :   0.8183 B( 60-C , 61-C ) :   1.3793 
B( 60-C , 75-H ) :   0.9577 B( 61-C , 76-H ) :   0.9427 B( 62-C , 77-H ) :   0.9213 
B( 78-C , 79-C ) :   1.3785 B( 78-C , 81-C ) :   1.3203 B( 78-C ,173-N ) :   0.8222 
B( 79-C , 80-C ) :   1.3763 B( 79-C ,102-H ) :   0.9571 B( 80-C , 83-C ) :   1.3021 
B( 80-C ,103-H ) :   0.9438 B( 81-C , 82-C ) :   1.4421 B( 81-C ,104-H ) :   0.9100 
B( 82-C , 83-C ) :   1.3978 B( 82-C ,105-H ) :   0.9155 B( 83-C , 84-C ) :   0.7736 
B( 84-C , 85-C ) :   1.3644 B( 84-C ,101-C ) :   1.3770 B( 85-C , 86-C ) :   1.4300 
B( 85-C ,106-H ) :   0.9202 B( 86-C , 87-C ) :   0.6929 B( 86-C , 93-C ) :   1.3998 
B( 87-C , 88-C ) :   1.4134 B( 87-C , 92-C ) :   1.3681 B( 88-C , 89-C ) :   1.3959 
B( 88-C ,107-H ) :   0.9369 B( 89-C , 90-C ) :   1.4268 B( 89-C ,108-H ) :   0.8824 
B( 90-C , 91-C ) :   1.2338 B( 90-C ,320-N ) :   0.8743 B( 91-C , 92-C ) :   1.3897 
B( 91-C ,109-H ) :   0.9681 B( 92-C ,110-H ) :   0.9547 B( 93-C , 94-C ) :   1.4091 
B( 93-C ,111-H ) :   0.9361 B( 94-C , 95-C ) :   0.6893 B( 94-C ,101-C ) :   1.4113 
B( 95-C , 96-C ) :   1.3708 B( 95-C ,100-C ) :   1.4122 B( 96-C , 97-C ) :   1.3907 
B( 96-C ,112-H ) :   0.9558 B( 97-C , 98-C ) :   1.2299 B( 97-C ,113-H ) :   0.9691 
B( 98-C , 99-C ) :   1.4249 B( 98-C ,287-N ) :   0.8734 B( 99-C ,100-C ) :   1.4008 
B( 99-C ,114-H ) :   0.8812 B(100-C ,115-H ) :   0.9364 B(101-C ,116-H ) :   0.9223 
B(117-C ,118-C ) :   1.4240 B(117-C ,120-C ) :   1.2292 B(117-C ,238-N ) :   0.8721 
B(118-C ,119-C ) :   1.4061 B(118-C ,141-H ) :   0.8813 B(119-C ,122-C ) :   1.4009 
B(119-C ,142-H ) :   0.9374 B(120-C ,121-C ) :   1.3909 B(120-C ,143-H ) :   0.9688 
B(121-C ,122-C ) :   1.3663 B(121-C ,144-H ) :   0.9553 B(122-C ,123-C ) :   0.6774 
B(123-C ,124-C ) :   1.4197 B(123-C ,140-C ) :   1.4429 B(124-C ,125-C ) :   1.3647 
B(124-C ,145-H ) :   0.9211 B(125-C ,126-C ) :   0.7634 B(125-C ,132-C ) :   1.3639 
B(126-C ,127-C ) :   1.3901 B(126-C ,131-C ) :   1.3143 B(127-C ,128-C ) :   1.4366 
B(127-C ,146-H ) :   0.9161 B(128-C ,129-C ) :   1.3277 B(128-C ,147-H ) :   0.9082 
B(129-C ,130-C ) :   1.3757 B(129-C ,271-N ) :   0.8185 B(130-C ,131-C ) :   1.3747 
B(130-C ,148-H ) :   0.9570 B(131-C ,149-H ) :   0.9442 B(132-C ,133-C ) :   1.3965 
B(132-C ,150-H ) :   0.9090 B(133-C ,134-C ) :   0.7341 B(133-C ,140-C ) :   1.3687 
B(134-C ,135-C ) :   1.4194 B(134-C ,139-C ) :   1.2657 B(135-C ,136-C ) :   1.4042 
B(135-C ,151-H ) :   0.9258 B(136-C ,137-C ) :   1.3110 B(136-C ,152-H ) :   0.9400 
B(137-C ,138-C ) :   1.3608 B(137-C ,336-N ) :   0.8252 B(138-C ,139-C ) :   1.3575 
B(138-C ,153-H ) :   0.9609 B(139-C ,154-H ) :   0.9552 B(140-C ,155-H ) :   0.9111 
B(156-Zn,157-N ) :   0.3855 B(156-Zn,165-N ) :   0.4403 B(156-Zn,173-N ) :   0.3941 
B(156-Zn,181-N ) :   0.4444 B(156-Zn,189-N ) :   0.3973 B(156-Zn,197-N ) :   0.4541 
B(157-N ,158-C ) :   1.8371 B(157-N ,159-C ) :  -0.1041 B(158-C ,159-C ) :   0.9683 
B(158-C ,166-H ) :   0.9102 B(159-C ,160-C ) :   1.3335 B(159-C ,165-N ) :   1.2888 
B(160-C ,161-C ) :   1.3954 B(160-C ,167-H ) :   0.9118 B(161-C ,162-C ) :   1.2997 
B(161-C ,168-H ) :   0.9699 B(162-C ,163-C ) :   0.8701 B(162-C ,164-C ) :   1.2713 
B(163-C ,169-H ) :   0.9450 B(163-C ,170-H ) :   0.9438 B(163-C ,171-H ) :   0.9737 
B(164-C ,165-N ) :   1.4252 B(164-C ,172-H ) :   0.9388 B(173-N ,174-C ) :   1.8217 
B(173-N ,175-C ) :  -0.1100 B(174-C ,175-C ) :   0.9216 B(174-C ,182-H ) :   0.9330 
B(175-C ,176-C ) :   1.3549 B(175-C ,181-N ) :   1.2642 B(176-C ,177-C ) :   1.3935 
B(176-C ,183-H ) :   0.9110 B(177-C ,178-C ) :   1.3020 B(177-C ,184-H ) :   0.9689 
B(178-C ,179-C ) :   0.8734 B(178-C ,180-C ) :   1.2624 B(179-C ,185-H ) :   0.9430 
B(179-C ,186-H ) :   0.9725 B(179-C ,187-H ) :   0.9455 B(180-C ,181-N ) :   1.4523 
B(180-C ,188-H ) :   0.9382 B(189-N ,190-C ) :   1.8363 B(189-N ,191-C ) :  -0.1170 
B(190-C ,191-C ) :   1.0021 B(190-C ,198-H ) :   0.9007 B(191-C ,192-C ) :   1.3374 
B(191-C ,197-N ) :   1.2723 B(192-C ,193-C ) :   1.3960 B(192-C ,199-H ) :   0.9129 
B(193-C ,194-C ) :   1.3031 B(193-C ,200-H ) :   0.9706 B(194-C ,195-C ) :   0.8744 
B(194-C ,196-C ) :   1.2633 B(195-C ,201-H ) :   0.9410 B(195-C ,202-H ) :   0.9726 
B(195-C ,203-H ) :   0.9479 B(196-C ,197-N ) :   1.4418 B(196-C ,204-H ) :   0.9397 
B(205-Zn,206-N ) :   0.3879 B(205-Zn,214-N ) :   0.4411 B(205-Zn,222-N ) :   0.3973 
B(205-Zn,230-N ) :   0.4457 B(205-Zn,238-N ) :   0.3926 B(205-Zn,246-N ) :   0.4545 
B(206-N ,207-C ) :   1.8375 B(206-N ,208-C ) :  -0.1042 B(207-C ,208-C ) :   0.9672 
B(207-C ,215-H ) :   0.9103 B(208-C ,209-C ) :   1.3338 B(208-C ,214-N ) :   1.2886 
B(209-C ,210-C ) :   1.3955 B(209-C ,216-H ) :   0.9119 B(210-C ,211-C ) :   1.3001 
B(210-C ,217-H ) :   0.9699 B(211-C ,212-C ) :   0.8704 B(211-C ,213-C ) :   1.2709 
B(212-C ,218-H ) :   0.9449 B(212-C ,219-H ) :   0.9437 B(212-C ,220-H ) :   0.9737 
B(213-C ,214-N ) :   1.4261 B(213-C ,221-H ) :   0.9386 B(222-N ,223-C ) :   1.8192 
B(222-N ,224-C ) :  -0.1091 B(223-C ,224-C ) :   0.9196 B(223-C ,231-H ) :   0.9339 
B(224-C ,225-C ) :   1.3560 B(224-C ,230-N ) :   1.2651 B(225-C ,226-C ) :   1.3941 
B(225-C ,232-H ) :   0.9107 B(226-C ,227-C ) :   1.3022 B(226-C ,233-H ) :   0.9688 
B(227-C ,228-C ) :   0.8738 B(227-C ,229-C ) :   1.2623 B(228-C ,234-H ) :   0.9724 
B(228-C ,235-H ) :   0.9454 B(228-C ,236-H ) :   0.9430 B(229-C ,230-N ) :   1.4513 
B(229-C ,237-H ) :   0.9384 B(238-N ,239-C ) :   1.8380 B(238-N ,240-C ) :  -0.1172 
B(239-C ,240-C ) :   1.0033 B(239-C ,247-H ) :   0.8998 B(240-C ,241-C ) :   1.3379 
B(240-C ,246-N ) :   1.2717 B(241-C ,242-C ) :   1.3957 B(241-C ,248-H ) :   0.9128 
B(242-C ,243-C ) :   1.3032 B(242-C ,249-H ) :   0.9705 B(243-C ,244-C ) :   0.8753 
B(243-C ,245-C ) :   1.2636 B(244-C ,250-H ) :   0.9724 B(244-C ,251-H ) :   0.9477 
B(244-C ,252-H ) :   0.9409 B(245-C ,246-N ) :   1.4431 B(245-C ,253-H ) :   0.9388 
B(254-Zn,255-N ) :   0.3896 B(254-Zn,263-N ) :   0.4405 B(254-Zn,271-N ) :   0.3917 
B(254-Zn,279-N ) :   0.4461 B(254-Zn,287-N ) :   0.3966 B(254-Zn,295-N ) :   0.4545 
B(255-N ,256-C ) :   1.8358 B(255-N ,257-C ) :  -0.1044 B(256-C ,257-C ) :   0.9682 
B(256-C ,264-H ) :   0.9106 B(257-C ,258-C ) :   1.3339 B(257-C ,263-N ) :   1.2894 
B(258-C ,259-C ) :   1.3954 B(258-C ,265-H ) :   0.9118 B(259-C ,260-C ) :   1.2997 
B(259-C ,266-H ) :   0.9699 B(260-C ,261-C ) :   0.8704 B(260-C ,262-C ) :   1.2714 
B(261-C ,267-H ) :   0.9737 B(261-C ,268-H ) :   0.9449 B(261-C ,269-H ) :   0.9437 
B(262-C ,263-N ) :   1.4237 B(262-C ,270-H ) :   0.9390 B(271-N ,272-C ) :   1.8205 
B(271-N ,273-C ) :  -0.1090 B(272-C ,273-C ) :   0.9216 B(272-C ,280-H ) :   0.9326 
B(273-C ,274-C ) :   1.3555 B(273-C ,279-N ) :   1.2649 B(274-C ,275-C ) :   1.3942 
B(274-C ,281-H ) :   0.9108 B(275-C ,276-C ) :   1.3021 B(275-C ,282-H ) :   0.9687 
B(276-C ,277-C ) :   0.8736 B(276-C ,278-C ) :   1.2612 B(277-C ,283-H ) :   0.9454 
B(277-C ,284-H ) :   0.9431 B(277-C ,285-H ) :   0.9723 B(278-C ,279-N ) :   1.4517 
B(278-C ,286-H ) :   0.9387 B(287-N ,288-C ) :   1.8386 B(287-N ,289-C ) :  -0.1170 
B(288-C ,289-C ) :   1.0015 B(288-C ,296-H ) :   0.9000 B(289-C ,290-C ) :   1.3379 
B(289-C ,295-N ) :   1.2713 B(290-C ,291-C ) :   1.3956 B(290-C ,297-H ) :   0.9128 
B(291-C ,292-C ) :   1.3034 B(291-C ,298-H ) :   0.9706 B(292-C ,293-C ) :   0.8754 
B(292-C ,294-C ) :   1.2635 B(293-C ,299-H ) :   0.9409 B(293-C ,300-H ) :   0.9724 
B(293-C ,301-H ) :   0.9479 B(294-C ,295-N ) :   1.4426 B(294-C ,302-H ) :   0.9392 
B(303-Zn,304-N ) :   0.3922 B(303-Zn,312-N ) :   0.4445 B(303-Zn,320-N ) :   0.3942 
B(303-Zn,328-N ) :   0.4522 B(303-Zn,336-N ) :   0.3975 B(303-Zn,344-N ) :   0.4383 
B(304-N ,305-C ) :   1.8194 B(304-N ,306-C ) :  -0.1091 B(305-C ,306-C ) :   0.9232 
B(305-C ,313-H ) :   0.9325 B(306-C ,307-C ) :   1.3544 B(306-C ,312-N ) :   1.2654 
B(307-C ,308-C ) :   1.3945 B(307-C ,314-H ) :   0.9112 B(308-C ,309-C ) :   1.3018 
B(308-C ,315-H ) :   0.9687 B(309-C ,310-C ) :   0.8727 B(309-C ,311-C ) :   1.2615 
B(310-C ,316-H ) :   0.9434 B(310-C ,317-H ) :   0.9724 B(310-C ,318-H ) :   0.9458 
B(311-C ,312-N ) :   1.4532 B(311-C ,319-H ) :   0.9389 B(320-N ,321-C ) :   1.8394 
B(320-N ,322-C ) :  -0.1176 B(321-C ,322-C ) :   1.0004 B(321-C ,329-H ) :   0.9006 
B(322-C ,323-C ) :   1.3373 B(322-C ,328-N ) :   1.2713 B(323-C ,324-C ) :   1.3954 
B(323-C ,330-H ) :   0.9131 B(324-C ,325-C ) :   1.3037 B(324-C ,331-H ) :   0.9706 
B(325-C ,326-C ) :   0.8749 B(325-C ,327-C ) :   1.2632 B(326-C ,332-H ) :   0.9725 
B(326-C ,333-H ) :   0.9482 B(326-C ,334-H ) :   0.9411 B(327-C ,328-N ) :   1.4433 
B(327-C ,335-H ) :   0.9397 B(336-N ,337-C ) :   1.8345 B(336-N ,338-C ) :  -0.1056 
B(337-C ,338-C ) :   0.9652 B(337-C ,345-H ) :   0.9132 B(338-C ,339-C ) :   1.3339 
B(338-C ,344-N ) :   1.2903 B(339-C ,340-C ) :   1.3948 B(339-C ,346-H ) :   0.9124 
B(340-C ,341-C ) :   1.2991 B(340-C ,347-H ) :   0.9702 B(341-C ,342-C ) :   0.8695 
B(341-C ,343-C ) :   1.2731 B(342-C ,348-H ) :   0.9438 B(342-C ,349-H ) :   0.9739 
B(342-C ,350-H ) :   0.9454 B(343-C ,344-N ) :   1.4215 B(343-C ,351-H ) :   0.9392 


-------
TIMINGS
-------

Total SCF time: 0 days 0 hours 15 min 35 sec 

Total time                  ....     935.627 sec
Sum of individual times     ....     885.968 sec  ( 94.7%)

Fock matrix formation       ....     518.604 sec  ( 55.4%)
  Split-RI-J                ....     327.066 sec  ( 63.1% of F)
  XC integration            ....     162.996 sec  ( 31.4% of F)
    Basis function eval.    ....      15.043 sec  (  9.2% of XC)
    Density eval.           ....      95.246 sec  ( 58.4% of XC)
    XC-Functional eval.     ....       3.436 sec  (  2.1% of XC)
    XC-Potential eval.      ....      27.801 sec  ( 17.1% of XC)
Diagonalization             ....     125.801 sec  ( 13.4%)
Density matrix formation    ....      13.828 sec  (  1.5%)
Population analysis         ....      69.713 sec  (  7.5%)
Initial guess               ....      19.463 sec  (  2.1%)
Orbital Transformation      ....       0.000 sec  (  0.0%)
Orbital Orthonormalization  ....       0.000 sec  (  0.0%)
DIIS solution               ....     100.603 sec  ( 10.8%)
Grid generation             ....      37.957 sec  (  4.1%)

Maximum memory used throughout the entire SCF-calculation: 2444.9 MB


-------------------------------------------------------------------------------
                          DFT DISPERSION CORRECTION                            
                                                                               
                                 DFTD4 V2.5                                    
-------------------------------------------------------------------------------
The R2SCAN3C composite method is recognized
Using three-body term ABC
Active option DFTDOPT                   ...         5   

Starting D4
-------------------------   ----------------
Dispersion correction           -0.274495847
-------------------------   ----------------

NOTIFICATION: Different basis set in ORCA and otool_gcp:
ORCA: 4848  gCP: 4840 
If you are NOT using ECPs, check your basis set inputs!
------------------   -----------------
gCP correction             0.164799326
------------------   -----------------

-------------------------   --------------------
FINAL SINGLE POINT ENERGY    -15373.357881987115
-------------------------   --------------------


                            ***************************************
                            *     ORCA property calculations      *
                            ***************************************

                                    ---------------------
                                    Active property flags
                                    ---------------------
   (+) Dipole Moment


------------------------------------------------------------------------------
                       ORCA ELECTRIC PROPERTIES CALCULATION
------------------------------------------------------------------------------

Dipole Moment Calculation                       ... on
Quadrupole Moment Calculation                   ... off
Polarizability Calculation                      ... off
GBWName                                         ... Tetrahedron_l0_ald3_ORCA_DFT.gbw
Electron density                                ... Tetrahedron_l0_ald3_ORCA_DFT.scfp
The origin for moment calculation is the CENTER OF MASS  = ( 0.189963, -0.314350  0.105464)

-------------
DIPOLE MOMENT
-------------
                                X             Y             Z
Electronic contribution:     -0.28786      -1.15718      -0.05349
Nuclear contribution   :      0.41760       1.75441       0.04365
                        -----------------------------------------
Total Dipole Moment    :      0.12975       0.59723      -0.00984
                        -----------------------------------------
Magnitude (a.u.)       :      0.61124
Magnitude (Debye)      :      1.55366



--------------------
Rotational spectrum 
--------------------
 
Rotational constants in cm-1:     0.000107     0.000106     0.000106 
Rotational constants in MHz :     3.208491     3.185072     3.172358 

 Dipole components along the rotational axes: 
x,y,z [a.u.] :     0.508134     0.182506    -0.286550 
x,y,z [Debye]:     1.291575     0.463894    -0.728352 

 

Timings for individual modules:

Sum of individual times         ...      959.455 sec (=  15.991 min)
GTO integral calculation        ...       20.764 sec (=   0.346 min)   2.2 %
SCF iterations                  ...      938.691 sec (=  15.645 min)  97.8 %
                             ****ORCA TERMINATED NORMALLY****
TOTAL RUN TIME: 0 days 0 hours 16 minutes 8 seconds 562 msec
